----- GAMESS execution script 'rungms' -----
This job is running on host node226
under operating system Linux at Sat Jun 11 01:20:03 CDT 2016
PBS has assigned the following compute nodes to this run:
node226
Available scratch disk space (Kbyte units) at beginning of the job is
Filesystem           1K-blocks      Used Available Use% Mounted on
/dev/sda7            2670838024  55495896 2479671344   3% /local
GAMESS temporary binary files will be written to /local/scratch/fzahari/196843.share
GAMESS supplementary output files will be written to /work1/quantum/fzahari/scr
Copying input file ang_var-1600.inp to your run's scratch directory...
cp ang_var-1600.inp /local/scratch/fzahari/196843.share/ang_var-1600.F05
unset echo
setenv I_MPI_WAIT_MODE enable
setenv I_MPI_PIN disable
setenv I_MPI_DEBUG 0
setenv I_MPI_STATS 0
setenv I_MPI_FABRICS dapl
setenv I_MPI_DAT_LIBRARY libdat2.so
unset echo
MPI kickoff will run GAMESS on 16 cores in 1 nodes.
The binary to be executed is /home/mschmidt/gamess/gamess.132.x
MPI will run 16 compute processes and 16 data servers,
    placing 16 of each process type onto each node.
The scratch disk space on each node is /local/scratch/fzahari/196843.share, with free space
Filesystem           1K-blocks      Used Available Use% Mounted on
/dev/sda7            2670838024  55495920 2479671320   3% /local
setenv I_MPI_HYDRA_ENV all
setenv I_MPI_PERHOST 32
unset echo
mpiexec.hydra -f /local/scratch/fzahari/196843.share/ang_var-1600.processes.mpd -n 32 /home/mschmidt/gamess/gamess.132.x
          ******************************************************
          *         GAMESS VERSION =  5 DEC 2014 (R1)          *
          *             FROM IOWA STATE UNIVERSITY             *
          * M.W.SCHMIDT, K.K.BALDRIDGE, J.A.BOATZ, S.T.ELBERT, *
          *   M.S.GORDON, J.H.JENSEN, S.KOSEKI, N.MATSUNAGA,   *
          *          K.A.NGUYEN, S.J.SU, T.L.WINDUS,           *
          *       TOGETHER WITH M.DUPUIS, J.A.MONTGOMERY       *
          *         J.COMPUT.CHEM.  14, 1347-1363(1993)        *
          **************** 64 BIT INTEL VERSION ****************

  SINCE 1993, STUDENTS AND POSTDOCS WORKING AT IOWA STATE UNIVERSITY
  AND ALSO IN THEIR VARIOUS JOBS AFTER LEAVING ISU HAVE MADE IMPORTANT
  CONTRIBUTIONS TO THE CODE:
     IVANA ADAMOVIC, CHRISTINE AIKENS, YURI ALEXEEV, POOJA ARORA,
     ANDREY ASADCHEV, ROB BELL, PRADIPTA BANDYOPADHYAY, JONATHAN BENTZ,
     BRETT BODE, KURT BRORSEN, CALEB CARLIN, GALINA CHABAN, WEI CHEN,
     CHEOL HO CHOI, PAUL DAY, ALBERT DEFUSCO, NUWAN DESILVA, TIM DUDLEY,
     DMITRI FEDOROV, GRAHAM FLETCHER, MARK FREITAG, KURT GLAESEMANN,
     DAN KEMP, GRANT MERRILL, NORIYUKI MINEZAWA, JONATHAN MULLIN,
     TAKESHI NAGATA, SEAN NEDD, HEATHER NETZLOFF, BOSILJKA NJEGIC, RYAN OLSON,
     MIKE PAK, SPENCER PRUITT, LUKE ROSKOP, JIM SHOEMAKER, LYUDMILA SLIPCHENKO,
     TONY SMITH, SAROM SOK, JIE SONG, TETSUYA TAKETSUGU, SIMON WEBB,
     PENG XU, SOOHAENG YOO, FEDERICO ZAHARIEV

  ADDITIONAL CODE HAS BEEN PROVIDED BY COLLABORATORS IN OTHER GROUPS:
     IOWA STATE UNIVERSITY:
          JOE IVANIC, AARON WEST, LAIMUTIS BYTAUTAS, KLAUS RUEDENBERG
     UNIVERSITY OF TOKYO: KIMIHIKO HIRAO, TAKAHITO NAKAJIMA,
          TAKAO TSUNEDA, MUNEAKI KAMIYA, SUSUMU YANAGISAWA,
          KIYOSHI YAGI, MAHITO CHIBA, SEIKEN TOKURA, NAOAKI KAWAKAMI
     UNIVERSITY OF AARHUS: FRANK JENSEN
     UNIVERSITY OF IOWA: VISVALDAS KAIRYS, HUI LI
     NATIONAL INST. OF STANDARDS AND TECHNOLOGY: WALT STEVENS, DAVID GARMER
     UNIVERSITY OF PISA: BENEDETTA MENNUCCI, JACOPO TOMASI
     UNIVERSITY OF MEMPHIS: HENRY KURTZ, PRAKASHAN KORAMBATH
     UNIVERSITY OF ALBERTA: TOBY ZENG, MARIUSZ KLOBUKOWSKI
     UNIVERSITY OF NEW ENGLAND: MARK SPACKMAN
     MIE UNIVERSITY: HIROAKI UMEDA
     NAT. INST. OF ADVANCED INDUSTRIAL SCIENCE AND TECHNOLOGY: KAZUO KITAURA
     MICHIGAN STATE UNIVERSITY:
          KAROL KOWALSKI, MARTA WLOCH, JEFFREY GOUR, JESSE LUTZ,
          WEI LI, PIOTR PIECUCH
     UNIVERSITY OF SILESIA: MONIKA MUSIAL, STANISLAW KUCHARSKI
     FACULTES UNIVERSITAIRES NOTRE-DAME DE LA PAIX:
          OLIVIER QUINET, BENOIT CHAMPAGNE
     UNIVERSITY OF CALIFORNIA - SANTA BARBARA: BERNARD KIRTMAN
     INSTITUTE FOR MOLECULAR SCIENCE:
          KAZUYA ISHIMURA, MICHIO KATOUDA, AND SHIGERU NAGASE
     UNIVERSITY OF NOTRE DAME: ANNA POMOGAEVA, DAN CHIPMAN
     KYUSHU UNIVERSITY:
          HARUYUKI NAKANO,
          FENG LONG GU, JACEK KORCHOWIEC, MARCIN MAKOWSKI, AND YURIKO AOKI,
          HIROTOSHI MORI AND EISAKU MIYOSHI
     PENNSYLVANIA STATE UNIVERSITY:
          TZVETELIN IORDANOV, CHET SWALINA, JONATHAN SKONE,
          SHARON HAMMES-SCHIFFER
     WASEDA UNIVERSITY:
          MASATO KOBAYASHI, TOMOKO AKAMA, TSUGUKI TOUMA,
          TAKESHI YOSHIKAWA, YASUHIRO IKABATA, HIROMI NAKAI
     NANJING UNIVERSITY: SHUHUA LI
     UNIVERSITY OF NEBRASKA:
          PEIFENG SU, DEJUN SI, NANDUN THELLAMUREGE, YALI WANG, HUI LI
     UNIVERSITY OF ZURICH: ROBERTO PEVERATI, KIM BALDRIDGE
     N. COPERNICUS UNIVERSITY AND JACKSON STATE UNIVERSITY:
          MARIA BARYSZ
     UNIVERSITY OF COPENHAGEN: CASPER STEINMANN
     TOKYO INSTITUTE OF TECHNOLOGY: HIROYA NAKATA
     NAGOYA UNIVERSITY: YOSHIO NISHIMOTO, STEPHAN IRLE


 PARALLEL VERSION RUNNING ON       16 PROCESSORS IN        1 NODES.

 EXECUTION OF GAMESS BEGUN Sat Jun 11 01:20:04 2016

            ECHO OF THE FIRST FEW INPUT CARDS -
 INPUT CARD> $ZMAT DLC=.T. AUTO=.T. $END                                                    
 INPUT CARD> $ZMAT IFZMAT(1)=2, 1 , 3 , 2  FVALUE(1)= 160.0 $END                            
 INPUT CARD> $CONTRL COORD=UNIQUE NZVAR= 39 $END                                            
 INPUT CARD> $CONTRL ICHARG=+3 MULT=1                                                       
 INPUT CARD>         MPLEVL=2                                                               
 INPUT CARD>         SCFTYP=RHF                                                             
 INPUT CARD>         MAXIT=200 ISPHER=1 ICUT=11                                             
 INPUT CARD>         RUNTYP=OPTIMIZE                                                        
 INPUT CARD>         PP=READ                                                                
 INPUT CARD>         $END                                                                   
 INPUT CARD> $SCF    DIRSCF=.T. FDIFF=.F. $END                                              
 INPUT CARD> $TRANS  DIRTRF=.T. $END                                                        
 INPUT CARD> $SYSTEM MWORDS=300 MEMDDI=300 $END                                             
 INPUT CARD> $GUESS  GUESS=HUCKEL $END                                                      
 INPUT CARD> $BASIS  BASNAM(1)=METAL,                                                       
 INPUT CARD>                   LIGP,                                                        
 INPUT CARD>                   LIGO,                                                        
 INPUT CARD>                   LIGC,                                                        
 INPUT CARD>                   LIGC,                                                        
 INPUT CARD>                   LIGC,                                                        
 INPUT CARD>                   LIGH,                                                        
 INPUT CARD>                   LIGH,                                                        
 INPUT CARD>                   LIGH,                                                        
 INPUT CARD>                   LIGH,                                                        
 INPUT CARD>                   LIGH,                                                        
 INPUT CARD>                   LIGH,                                                        
 INPUT CARD>                   LIGH,                                                        
 INPUT CARD>                   LIGH,                                                        
 INPUT CARD>                   LIGH                                                         
 INPUT CARD> $END                                                                           
 INPUT CARD> $DATA                                                                          
 INPUT CARD>                                                                                
 INPUT CARD> C1                                                                             
 INPUT CARD> LA 57.0 0.31435 0.88028 -4.02887                                               
 INPUT CARD> P 15.0 0.0919108872995 0.236062857384 -0.348514121855                          
 INPUT CARD> O 8.0 -0.10013 0.67027 -1.98246                                                
 INPUT CARD> C 6.0 -1.30850103215 0.897690699207 0.512168403238                             
 INPUT CARD> C 6.0 1.61723770416 0.962822460129 0.185250206456                              
 INPUT CARD> C 6.0 0.13625986487 -1.53476225367 -0.304501994763                             
 INPUT CARD> H 1.0 -1.33378153094 1.98493425314 0.449139852429                              
 INPUT CARD> H 1.0 -1.18973305947 0.620701440827 1.56522891114                              
 INPUT CARD> H 1.0 -2.23802489078 0.460069964309 0.150006238576                             
 INPUT CARD> H 1.0 2.46233138673 0.564620729151 -0.375061532255                             
 INPUT CARD> H 1.0 1.74592855954 0.686138196066 1.23723341339                               
 INPUT CARD> H 1.0 1.58021204032 2.0497977354 0.12348154634                                 
 INPUT CARD> H 1.0 0.98725253846 -1.92293572893 -0.862925164683                             
 INPUT CARD> H 1.0 -0.799088779069 -1.96267337778 -0.663248294327                           
 INPUT CARD> H 1.0 0.260024364781 -1.81997761305 0.745796090657                             
 INPUT CARD> $END                                                                           
 INPUT CARD>!                                                                               
  300000000 WORDS OF MEMORY AVAILABLE

     BASIS OPTIONS
     -------------
     GBASIS=             IGAUSS=       0      POLAR=NONE    
     NDFUNC=       0     NFFUNC=       0     DIFFSP=       F
     NPFUNC=       0      DIFFS=       F     BASNAM=METAL   

 USING BASNAM FOR ATOM CUSTOMIZED BASIS CONSTRUCTION
     ----------------
     ATOM  BASIS NAME
     ----------------
       1   METAL   
       2   LIGP    
       3   LIGO    
       4   LIGC    
       5   LIGC    
       6   LIGC    
       7   LIGH    
       8   LIGH    
       9   LIGH    
      10   LIGH    
      11   LIGH    
      12   LIGH    
      13   LIGH    
      14   LIGH    
      15   LIGH    
 NOW LOCATING ALL   15 BASIS SETS IN YOUR INPUT FILE...
 FOUND BASIS SET  $METAL 
  SBKJC                        
                               
  $END                         
 FOUND BASIS SET  $LIGP  
  CCT                          
                               
  $END                         
 FOUND BASIS SET  $LIGO  
  CCT                          
                               
  $END                         
 FOUND BASIS SET  $LIGC  
  CCT                          
                               
  $END                         
 FOUND BASIS SET  $LIGH  
  CCT                          
                               
  $END                         
    5 UNIQUE ATOM CUSTOMIZED BASIS SETS WERE FOUND.

     SEARCHING FOR $MCP
     $MCP GROUP NOT FOUND


     RUN TITLE
     ---------
                                                                                 

 THE POINT GROUP OF THE MOLECULE IS C1      
 THE ORDER OF THE PRINCIPAL AXIS IS     0

 ATOM      ATOMIC                      COORDINATES (BOHR)
           CHARGE         X                   Y                   Z
 LA         57.0     0.5940353642        1.6634879925       -7.6134603402
 P          15.0     0.1736863923        0.4460941163       -0.6585961932
 O           8.0    -0.1892182632        1.2666266378       -3.7463061816
 C           6.0    -2.4727084054        1.6963894432        0.9678579417
 C           6.0     3.0561361179        1.8194706245        0.3500721294
 C           6.0     0.2574938077       -2.9002801157       -0.5754253328
 H           1.0    -2.5204816210        3.7509818421        0.8487512513
 H           1.0    -2.2482694809        1.1729556433        2.9578537501
 H           1.0    -4.2292537973        0.8694061677        0.2834706874
 H           1.0     4.6531316119        1.0669784651       -0.7087635245
 H           1.0     3.2993265717        1.2966131803        2.3380321342
 H           1.0     2.9861677587        3.8735560502        0.2333462871
 H           1.0     1.8656367784       -3.6338216197       -1.6306921092
 H           1.0    -1.5100588323       -3.7089148874       -1.2533575381
 H           1.0     0.4913747996       -3.4392589925        1.4093502541

          INTERNUCLEAR DISTANCES (ANGS.)
          ------------------------------

                1 LA         2 P          3 O          4 C          5 C     

   1 LA      0.0000000    3.7429286    2.0984975 *  4.8223416    4.4117047  
   2 P       3.7429286    0.0000000    1.7015272 *  1.7719140 *  1.7719215 *
   3 O       2.0984975 *  1.7015272 *  0.0000000    2.7811961 *  2.7809902 *
   4 C       4.8223416    1.7719140 *  2.7811961 *  0.0000000    2.9446672 *
   5 C       4.4117047    1.7719215 *  2.7809902 *  2.9446672 *  0.0000000  
   6 C       4.4424163    1.7719271 *  2.7809334 *  2.9446752 *  2.9446701 *
   7 H       4.8978741    2.3931991 *  3.0270309    1.0893623 *  3.1341450  
   8 H       5.7985851    2.3351596 *  3.7115749    1.0953380 *  3.1465017  
   9 H       4.9146923    2.3931783 *  3.0269111    1.0893521 *  3.8880653  
  10 H       4.2501507    2.3932297 *  3.0267309    3.8880959    1.0893563 *
  11 H       5.4606733    2.3351526 *  3.7114161    3.1464287    1.0953466 *
  12 H       4.4957982    2.3932101 *  3.0268194    3.1341811    1.0893583 *
  13 H       4.2818247    2.3932259 *  3.0266277    3.8880972    3.1341910  
  14 H       4.5441764    2.3931943 *  3.0267563    3.1341327    3.8880727  
  15 H       5.4855974    2.3351829 *  3.7113913    3.1465179    3.1464609  

                6 C          7 H          8 H          9 H         10 H     

   1 LA      4.4424163    4.8978741    5.7985851    4.9146923    4.2501507  
   2 P       1.7719271 *  2.3931991 *  2.3351596 *  2.3931783 *  2.3932297 *
   3 O       2.7809334 *  3.0270309    3.7115749    3.0269111    3.0267309  
   4 C       2.9446752 *  1.0893623 *  1.0953380 *  1.0893521 *  3.8880959  
   5 C       2.9446701 *  3.1341450    3.1465017    3.8880653    1.0893563 *
   6 C       0.0000000    3.8880922    3.1464543    3.1341923    3.1341660  
   7 H       3.8880922    0.0000000    1.7684841 *  1.7978732 *  4.1360696  
   8 H       3.1464543    1.7684841 *  0.0000000    1.7684947 *  4.1358732  
   9 H       3.1341923    1.7978732 *  1.7684947 *  0.0000000    4.7307479  
  10 H       3.1341660    4.1360696    4.1358732    4.7307479    0.0000000  
  11 H       3.1464870    3.4340322    2.9546526 *  4.1358258    1.7684724 *
  12 H       3.8880893    2.9328517 *  3.4341735    4.1360454    1.7978961 *
  13 H       1.0893593 *  4.7307675    4.1358540    4.1360803    2.9328835 *
  14 H       1.0893502 *  4.1360500    3.4340267    2.9328494 *  4.1360765  
  15 H       1.0953500 *  4.1358888    2.9546880 *  3.4342150    3.4340628  

               11 H         12 H         13 H         14 H         15 H     

   1 LA      5.4606733    4.4957982    4.2818247    4.5441764    5.4855974  
   2 P       2.3351526 *  2.3932101 *  2.3932259 *  2.3931943 *  2.3351829 *
   3 O       3.7114161    3.0268194    3.0266277    3.0267563    3.7113913  
   4 C       3.1464287    3.1341811    3.8880972    3.1341327    3.1465179  
   5 C       1.0953466 *  1.0893583 *  3.1341910    3.8880727    3.1464609  
   6 C       3.1464870    3.8880893    1.0893593 *  1.0893502 *  1.0953500 *
   7 H       3.4340322    2.9328517 *  4.7307675    4.1360500    4.1358888  
   8 H       2.9546526 *  3.4341735    4.1358540    3.4340267    2.9546880 *
   9 H       4.1358258    4.1360454    4.1360803    2.9328494 *  3.4342150  
  10 H       1.7684724 *  1.7978961 *  2.9328835 *  4.1360765    3.4340628  
  11 H       0.0000000    1.7684662 *  3.4341698    4.1358369    2.9546638 *
  12 H       1.7684662 *  0.0000000    4.1360864    4.7307442    4.1358593  
  13 H       3.4341698    4.1360864    0.0000000    1.7979058 *  1.7684584 *
  14 H       4.1358369    4.7307442    1.7979058 *  0.0000000    1.7684708 *
  15 H       2.9546638 *  4.1358593    1.7684584 *  1.7684708 *  0.0000000  

  * ... LESS THAN  3.000


     ATOMIC BASIS SET
     ----------------
 THE CONTRACTED PRIMITIVE FUNCTIONS HAVE BEEN UNNORMALIZED
 THE CONTRACTED BASIS FUNCTIONS ARE NOW NORMALIZED TO UNITY

  SHELL TYPE  PRIMITIVE        EXPONENT          CONTRACTION COEFFICIENT(S)

 LA        

      1   L       1             9.1730000   -0.054833023521   -0.009797991527
      1   L       2             3.1200000    0.676604290237    0.231261800020
      1   L       3             2.1040000   -1.034429443730   -0.601214480110
      1   L       4             1.3200000   -0.518907222591    0.195188831214
      1   L       5             0.4960000    1.631603699894    1.076136069429

      2   D       6             1.2380000   -0.053797021791
      2   D       7             0.6061000    0.380144153981
      2   D       8             0.2518000    0.720349291785

      3   D       9             0.0978700    1.000000000000

      4   L      10             0.6182000   -0.107095028128   -0.051868986063
      4   L      11             0.0454600    1.033448271434    1.008107729120

      5   L      12             0.0177500    1.000000000000    1.000000000000

      6   L      13             0.2004000    1.000000000000    1.000000000000

      7   D      14             0.0353600    1.000000000000

 P         

      8   S      15        312400.0000000    0.000057689641
      8   S      16         46800.0000000    0.000448246591
      8   S      17         10650.0000000    0.002349131061
      8   S      18          3018.0000000    0.009781571802
      8   S      19           986.8000000    0.034142936511
      8   S      20           357.4000000    0.100192955985
      8   S      21           139.6000000    0.234346168617
      8   S      22            57.6300000    0.382391849918
      8   S      23            24.6000000    0.318052941833
      8   S      24            10.1200000    0.070770999093
      8   S      25             4.2830000   -0.001817789630
      8   S      26             1.8050000    0.002161561737
      8   S      27             0.2782000    0.000432249354

      9   S      28        312400.0000000   -0.000016380204
      9   S      29         46800.0000000   -0.000127233535
      9   S      30         10650.0000000   -0.000668625166
      9   S      31          3018.0000000   -0.002795303744
      9   S      32           986.8000000   -0.009928227435
      9   S      33           357.4000000   -0.030244566456
      9   S      34           139.6000000   -0.077884705328
      9   S      35            57.6300000   -0.156724571545
      9   S      36            24.6000000   -0.198042753651
      9   S      37            10.1200000    0.037971251521
      9   S      38             4.2830000    0.552751544147
      9   S      39             1.8050000    0.542611452452
      9   S      40             0.2782000   -0.009675942874

     10   S      41        312400.0000000    0.000006865735
     10   S      42         46800.0000000    0.000053281983
     10   S      43         10650.0000000    0.000280421002
     10   S      44          3018.0000000    0.001170789768
     10   S      45           986.8000000    0.004173591138
     10   S      46           357.4000000    0.012720496749
     10   S      47           139.6000000    0.033152766352
     10   S      48            57.6300000    0.067671246836
     10   S      49            24.6000000    0.089831018862
     10   S      50            10.1200000   -0.020305232360
     10   S      51             4.2830000   -0.313280408979
     10   S      52             1.8050000   -0.563687905527
     10   S      53             0.2782000    1.117494073734

     11   S      54             0.6158000    1.000000000000

     12   S      55             0.1055000    1.000000000000

     13   P      56           504.9000000    0.002433660431
     13   P      57           119.4000000    0.019305559477
     13   P      58            37.9600000    0.088473106893
     13   P      59            13.9500000    0.254701981099
     13   P      60             5.4570000    0.440199242653
     13   P      61             2.1770000    0.383632006272
     13   P      62             0.2877000   -0.003946337074

     14   P      63           504.9000000   -0.000954298933
     14   P      64           119.4000000   -0.007664025747
     14   P      65            37.9600000   -0.035465925259
     14   P      66            13.9500000   -0.106164716437
     14   P      67             5.4570000   -0.187210586037
     14   P      68             2.1770000   -0.181495819791
     14   P      69             0.2877000    0.991672644618

     15   P      70             0.8010000    1.000000000000

     16   P      71             0.0971400    1.000000000000

     17   D      72             0.6480000    1.000000000000

     18   D      73             0.2180000    1.000000000000

     19   F      74             0.4520000    1.000000000000

     20   D      75             3.1200000    1.000000000000

 O         

     21   S      76         15330.0000000    0.000520198307
     21   S      77          2299.0000000    0.004023344781
     21   S      78           522.4000000    0.020729083329
     21   S      79           147.3000000    0.081082327080
     21   S      80            47.5500000    0.236226352118
     21   S      81            16.7600000    0.443518209420
     21   S      82             6.2070000    0.358670588689
     21   S      83             0.6882000   -0.008349797237

     22   S      84         15330.0000000   -0.000197236012
     22   S      85          2299.0000000   -0.001535010700
     22   S      86           522.4000000   -0.007951183914
     22   S      87           147.3000000   -0.032113452892
     22   S      88            47.5500000   -0.100269643049
     22   S      89            16.7600000   -0.234047111838
     22   S      90             6.2070000   -0.301410927756
     22   S      91             0.6882000    1.034919649508

     23   S      92             1.7520000    1.000000000000

     24   S      93             0.2384000    1.000000000000

     25   P      94            34.4600000    0.041163489568
     25   P      95             7.7490000    0.257762835858
     25   P      96             2.2800000    0.802419274427

     26   P      97             0.7156000    1.000000000000

     27   P      98             0.2140000    1.000000000000

     28   D      99             2.3140000    1.000000000000

     29   D     100             0.6450000    1.000000000000

     30   F     101             1.4280000    1.000000000000

 C         

     31   S     102          8236.0000000    0.000542430189
     31   S     103          1235.0000000    0.004196427901
     31   S     104           280.8000000    0.021540914108
     31   S     105            79.2700000    0.083614949614
     31   S     106            25.5900000    0.239871618922
     31   S     107             8.9970000    0.443751820060
     31   S     108             3.3190000    0.353579696469
     31   S     109             0.3643000   -0.009176366076

     32   S     110          8236.0000000   -0.000196392234
     32   S     111          1235.0000000   -0.001525950274
     32   S     112           280.8000000   -0.007890449028
     32   S     113            79.2700000   -0.031514870532
     32   S     114            25.5900000   -0.096910008320
     32   S     115             8.9970000   -0.220541526288
     32   S     116             3.3190000   -0.296069112937
     32   S     117             0.3643000    1.040503432950

     33   S     118             0.9059000    1.000000000000

     34   S     119             0.1285000    1.000000000000

     35   P     120            18.7100000    0.039426387165
     35   P     121             4.1330000    0.244088984924
     35   P     122             1.2000000    0.815492008943

     36   P     123             0.3827000    1.000000000000

     37   P     124             0.1209000    1.000000000000

     38   D     125             1.0970000    1.000000000000

     39   D     126             0.3180000    1.000000000000

     40   F     127             0.7610000    1.000000000000

 C         

     41   S     128          8236.0000000    0.000542430189
     41   S     129          1235.0000000    0.004196427901
     41   S     130           280.8000000    0.021540914108
     41   S     131            79.2700000    0.083614949614
     41   S     132            25.5900000    0.239871618922
     41   S     133             8.9970000    0.443751820060
     41   S     134             3.3190000    0.353579696469
     41   S     135             0.3643000   -0.009176366076

     42   S     136          8236.0000000   -0.000196392234
     42   S     137          1235.0000000   -0.001525950274
     42   S     138           280.8000000   -0.007890449028
     42   S     139            79.2700000   -0.031514870532
     42   S     140            25.5900000   -0.096910008320
     42   S     141             8.9970000   -0.220541526288
     42   S     142             3.3190000   -0.296069112937
     42   S     143             0.3643000    1.040503432950

     43   S     144             0.9059000    1.000000000000

     44   S     145             0.1285000    1.000000000000

     45   P     146            18.7100000    0.039426387165
     45   P     147             4.1330000    0.244088984924
     45   P     148             1.2000000    0.815492008943

     46   P     149             0.3827000    1.000000000000

     47   P     150             0.1209000    1.000000000000

     48   D     151             1.0970000    1.000000000000

     49   D     152             0.3180000    1.000000000000

     50   F     153             0.7610000    1.000000000000

 C         

     51   S     154          8236.0000000    0.000542430189
     51   S     155          1235.0000000    0.004196427901
     51   S     156           280.8000000    0.021540914108
     51   S     157            79.2700000    0.083614949614
     51   S     158            25.5900000    0.239871618922
     51   S     159             8.9970000    0.443751820060
     51   S     160             3.3190000    0.353579696469
     51   S     161             0.3643000   -0.009176366076

     52   S     162          8236.0000000   -0.000196392234
     52   S     163          1235.0000000   -0.001525950274
     52   S     164           280.8000000   -0.007890449028
     52   S     165            79.2700000   -0.031514870532
     52   S     166            25.5900000   -0.096910008320
     52   S     167             8.9970000   -0.220541526288
     52   S     168             3.3190000   -0.296069112937
     52   S     169             0.3643000    1.040503432950

     53   S     170             0.9059000    1.000000000000

     54   S     171             0.1285000    1.000000000000

     55   P     172            18.7100000    0.039426387165
     55   P     173             4.1330000    0.244088984924
     55   P     174             1.2000000    0.815492008943

     56   P     175             0.3827000    1.000000000000

     57   P     176             0.1209000    1.000000000000

     58   D     177             1.0970000    1.000000000000

     59   D     178             0.3180000    1.000000000000

     60   F     179             0.7610000    1.000000000000

 H         

     61   S     180            33.8700000    0.025494863235
     61   S     181             5.0950000    0.190362765893
     61   S     182             1.1590000    0.852162022245

     62   S     183             0.3258000    1.000000000000

     63   S     184             0.1027000    1.000000000000

     64   P     185             1.4070000    1.000000000000

     65   P     186             0.3880000    1.000000000000

     66   D     187             1.0570000    1.000000000000

 H         

     67   S     188            33.8700000    0.025494863235
     67   S     189             5.0950000    0.190362765893
     67   S     190             1.1590000    0.852162022245

     68   S     191             0.3258000    1.000000000000

     69   S     192             0.1027000    1.000000000000

     70   P     193             1.4070000    1.000000000000

     71   P     194             0.3880000    1.000000000000

     72   D     195             1.0570000    1.000000000000

 H         

     73   S     196            33.8700000    0.025494863235
     73   S     197             5.0950000    0.190362765893
     73   S     198             1.1590000    0.852162022245

     74   S     199             0.3258000    1.000000000000

     75   S     200             0.1027000    1.000000000000

     76   P     201             1.4070000    1.000000000000

     77   P     202             0.3880000    1.000000000000

     78   D     203             1.0570000    1.000000000000

 H         

     79   S     204            33.8700000    0.025494863235
     79   S     205             5.0950000    0.190362765893
     79   S     206             1.1590000    0.852162022245

     80   S     207             0.3258000    1.000000000000

     81   S     208             0.1027000    1.000000000000

     82   P     209             1.4070000    1.000000000000

     83   P     210             0.3880000    1.000000000000

     84   D     211             1.0570000    1.000000000000

 H         

     85   S     212            33.8700000    0.025494863235
     85   S     213             5.0950000    0.190362765893
     85   S     214             1.1590000    0.852162022245

     86   S     215             0.3258000    1.000000000000

     87   S     216             0.1027000    1.000000000000

     88   P     217             1.4070000    1.000000000000

     89   P     218             0.3880000    1.000000000000

     90   D     219             1.0570000    1.000000000000

 H         

     91   S     220            33.8700000    0.025494863235
     91   S     221             5.0950000    0.190362765893
     91   S     222             1.1590000    0.852162022245

     92   S     223             0.3258000    1.000000000000

     93   S     224             0.1027000    1.000000000000

     94   P     225             1.4070000    1.000000000000

     95   P     226             0.3880000    1.000000000000

     96   D     227             1.0570000    1.000000000000

 H         

     97   S     228            33.8700000    0.025494863235
     97   S     229             5.0950000    0.190362765893
     97   S     230             1.1590000    0.852162022245

     98   S     231             0.3258000    1.000000000000

     99   S     232             0.1027000    1.000000000000

    100   P     233             1.4070000    1.000000000000

    101   P     234             0.3880000    1.000000000000

    102   D     235             1.0570000    1.000000000000

 H         

    103   S     236            33.8700000    0.025494863235
    103   S     237             5.0950000    0.190362765893
    103   S     238             1.1590000    0.852162022245

    104   S     239             0.3258000    1.000000000000

    105   S     240             0.1027000    1.000000000000

    106   P     241             1.4070000    1.000000000000

    107   P     242             0.3880000    1.000000000000

    108   D     243             1.0570000    1.000000000000

 H         

    109   S     244            33.8700000    0.025494863235
    109   S     245             5.0950000    0.190362765893
    109   S     246             1.1590000    0.852162022245

    110   S     247             0.3258000    1.000000000000

    111   S     248             0.1027000    1.000000000000

    112   P     249             1.4070000    1.000000000000

    113   P     250             0.3880000    1.000000000000

    114   D     251             1.0570000    1.000000000000

 TOTAL NUMBER OF BASIS SET SHELLS             =  114
 NUMBER OF CARTESIAN GAUSSIAN BASIS FUNCTIONS =  354
 NOTE: THIS RUN WILL RESTRICT THE MO VARIATION SPACE TO SPHERICAL HARMONICS.
 THE NUMBER OF ORBITALS KEPT IN THE VARIATIONAL SPACE WILL BE PRINTED LATER.
 NUMBER OF ELECTRONS                          =  104
 CHARGE OF MOLECULE                           =    3
 SPIN MULTIPLICITY                            =    1
 NUMBER OF OCCUPIED ORBITALS (ALPHA)          =   52
 NUMBER OF OCCUPIED ORBITALS (BETA )          =   52
 TOTAL NUMBER OF ATOMS                        =   15
 THE NUCLEAR REPULSION ENERGY IS      667.6120245907
 NOTE THIS RUN IS USING CORE POTENTIALS, AND THE NUMBER OF ELECTRONS,
 OCCUPIED ORBITALS, AND NUCLEAR REPULSION ENERGY WILL BE ADJUSTED BELOW
 AFTER REMOVAL OF THE CORE CHARGES.

     $CONTRL OPTIONS
     ---------------
 SCFTYP=RHF          RUNTYP=OPTIMIZE     EXETYP=RUN     
 MPLEVL=       2     CITYP =NONE         CCTYP =NONE         VBTYP =NONE    
 DFTTYP=NONE         TDDFT =NONE    
 MULT  =       1     ICHARG=       3     NZVAR =      39     COORD =UNIQUE  
 PP    =READ         RELWFN=NONE         LOCAL =NONE         NUMGRD=       F
 ISPHER=       1     NOSYM =       0     MAXIT =     200     UNITS =ANGS    
 PLTORB=       F     MOLPLT=       F     AIMPAC=       F     FRIEND=        
 NPRINT=       7     IREST =       0     GEOM  =INPUT   
 NORMF =       0     NORMP =       0     ITOL  =      20     ICUT  =      11
 INTTYP=BEST         GRDTYP=BEST         QMTTOL= 1.0E-06

     $SYSTEM OPTIONS
     ---------------
  REPLICATED MEMORY=   300000000 WORDS (ON EVERY NODE).
 DISTRIBUTED MEMDDI=         300 MILLION WORDS IN AGGREGATE,
 MEMDDI DISTRIBUTED OVER  16 PROCESSORS IS    18750000 WORDS/PROCESSOR.
 TOTAL MEMORY REQUESTED ON EACH PROCESSOR=   318750000 WORDS.
 TIMLIM=      525600.00 MINUTES, OR     365.0 DAYS.
 PARALL= T  BALTYP=  DLB     KDIAG=    0  COREFL= F
 MXSEQ2=     300 MXSEQ3=     150  mem10=         0

          --------------
          ECP POTENTIALS
          --------------

 PARAMETERS FOR "LA-ECP  " ON ATOM    1 WITH ZCORE  46 AND LMAX  4 ARE
 FOR L= 4      COEFF    N           ZETA
    1       -2.85665    1        1.42345
 FOR L= 0      COEFF    N           ZETA
    1        8.85347    0       22.29739
    2      -68.41778    2        1.64320
    3      110.12463    2        1.85122
 FOR L= 1      COEFF    N           ZETA
    1        2.98675    0        1.77635
    2      -35.51815    2        3.98941
    3       53.65423    2        2.47524
 FOR L= 2      COEFF    N           ZETA
    1        1.67298    0        1.52169
    2       18.46625    2        1.52182
 FOR L= 3      COEFF    N           ZETA
    1       -4.64430    1        2.67762
    2      -14.43101    1       10.06608

 THE ECP RUN REMOVES   46 CORE ELECTRONS, AND THE SAME NUMBER OF PROTONS.
 NUMBER OF ELECTRONS KEPT IN THE CALCULATION IS =   58
 NUMBER OF OCCUPIED ORBITALS (ALPHA) KEPT IS    =   29
 NUMBER OF OCCUPIED ORBITALS (BETA ) KEPT IS    =   29
 THE ADJUSTED NUCLEAR REPULSION ENERGY=      335.7920625739
          ECP ANGULAR INTS.........     0.03 SECONDS

          ----------------
          PROPERTIES INPUT
          ----------------

     MOMENTS            FIELD           POTENTIAL          DENSITY
 IEMOM =       1   IEFLD =       0   IEPOT =       0   IEDEN =       0
 WHERE =COMASS     WHERE =NUCLEI     WHERE =NUCLEI     WHERE =NUCLEI  
 OUTPUT=BOTH       OUTPUT=BOTH       OUTPUT=BOTH       OUTPUT=BOTH    
 IEMINT=       0   IEFINT=       0                     IEDINT=       0
                                                       MORB  =       0
          EXTRAPOLATION IN EFFECT
          SOSCF IN EFFECT
 ORBITAL PRINTING OPTION: NPREO=     1   354     2     1

     -------------------------------
     INTEGRAL TRANSFORMATION OPTIONS
     -------------------------------
     NWORD  =            0
     CUTOFF = 1.0E-09     MPTRAN =       0
     DIRTRF =       T     AOINTS =DUP     

          ----------------------
          INTEGRAL INPUT OPTIONS
          ----------------------
 NOPK  =       1 NORDER=       0 SCHWRZ=       T

          -----------------------
          MP2 CONTROL INFORMATION
          -----------------------
          NACORE =       13  NBCORE =       13
          LMOMP2 =        F  AOINTS = DUP     
          METHOD =        2  NWORD  =               0
          MP2PRP =        F  OSPT   = NONE    
          CUTOFF = 1.00E-09  CPHFBS = BASISAO 
          CODE   = DDI     

          NUMBER OF CORE -A-  ORBITALS =    13
          NUMBER OF CORE -B-  ORBITALS =    13
          NUMBER OF OCC. -A-  ORBITALS =    29
          NUMBER OF OCC. -B-  ORBITALS =    29
          NUMBER OF MOLECULAR ORBITALS =   354
          NUMBER OF   BASIS  FUNCTIONS =   354

 
 
 -----------------------------------------------
  STATISTICS ON AUTOMATIC COORDINATE GENERATION 
 -----------------------------------------------
  NUMBER OF USER SPECIFIED BONDS                              0
  NUMBER OF BONDS                                            14
  NUMBER OF ANGLES                                           25
  NUMBER OF TORSIONS                                         30
  NUMBER OF EXTRA COORD.                                      0
  NUMBER OF EXTRA COORD. FOR CONSTRAINTS                      0
  NUMBER OF CONSTRAINED COORD.                                1
 
  TOTAL NUMBER OF PRIMITIVES                                 69
 -----------------------------------------------

   --- ENCODED Z MATRIX ---
 COORD  TYPE   I   J   K   L   M   N
    1      2    1   3   2
    2      1    1   3
    3      1    2   4
    4      1    2   3
    5      1    2   6
    6      1    2   5
    7      1    4   8
    8      1    4   7
    9      1    4   9
   10      1    5  12
   11      1    5  11
   12      1    5  10
   13      1    6  15
   14      1    6  14
   15      1    6  13
   16      2    2   5  11
   17      2    2   4   8
   18      2    2   6  13
   19      2    2   6  14
   20      2    2   4   9
   21      2    2   5  12
   22      2    2   5  10
   23      2    2   4   7
   24      2    2   6  15
   25      2    3   2   4
   26      2    3   2   5
   27      2    3   2   6
   28      2    4   2   6
   29      2    4   2   5
   30      2    5   2   6
   31      2    7   4   9
   32      2    7   4   8
   33      2    8   4   9
   34      2   10   5  11
   35      2   10   5  12
   36      2   11   5  12
   37      2   13   6  14
   38      2   13   6  15
   39      2   14   6  15
   40      3    1   3   2   5
   41      3    1   3   2   4
   42      3    1   3   2   6
   43      3    3   2   4   8
   44      3    3   2   6  15
   45      3    3   2   6  14
   46      3    3   2   4   7
   47      3    3   2   5  10
   48      3    3   2   6  13
   49      3    3   2   5  11
   50      3    3   2   5  12
   51      3    3   2   4   9
   52      3    4   2   6  15
   53      3    4   2   6  14
   54      3    4   2   5  10
   55      3    4   2   6  13
   56      3    4   2   5  12
   57      3    4   2   5  11
   58      3    5   2   6  15
   59      3    5   2   6  14
   60      3    5   2   4   7
   61      3    5   2   6  13
   62      3    5   2   4   9
   63      3    5   2   4   8
   64      3    6   2   4   7
   65      3    6   2   5  10
   66      3    6   2   5  11
   67      3    6   2   5  12
   68      3    6   2   4   9
   69      3    6   2   4   8

          INDEP./SYM. INTERNAL COORDINATES
          --------------------------------
 CRD  1=   1.0000 (  1)
 CRD  2=   0.1035 ( 16) -0.1308 ( 20) -0.1039 ( 22)  0.1270 ( 23) -0.1115 ( 24)
          -0.2968 ( 26)  0.3198 ( 27) -0.4179 ( 28)  0.4502 ( 29) -0.1739 ( 40)
           0.1855 ( 41) -0.1481 ( 42)  0.1153 ( 46)  0.1111 ( 51) -0.1371 ( 53)
          -0.1234 ( 56)  0.1621 ( 58)  0.1006 ( 59)  0.1594 ( 61)  0.1518 ( 65)
           0.1641 ( 66) -0.1008 ( 69)
 CRD  3=  -0.3215 (  3)  0.1499 (  5)  0.1864 (  6)  0.2287 ( 18) -0.1443 ( 19)
          -0.1218 ( 21)  0.2244 ( 22) -0.2437 ( 28) -0.1960 ( 29)  0.4193 ( 30)
           0.2337 ( 40) -0.2518 ( 42)  0.1706 ( 44) -0.1583 ( 49) -0.1336 ( 59)
          -0.1001 ( 60) -0.1265 ( 61) -0.1029 ( 63)  0.1040 ( 64)  0.1340 ( 65)
           0.1413 ( 67)  0.1101 ( 68)  0.1012 ( 69)
 CRD  4=   0.3556 (  5) -0.3300 (  6)  0.1941 ( 19)  0.1534 ( 20) -0.2011 ( 21)
          -0.1734 ( 23) -0.2236 ( 26)  0.2410 ( 27)  0.1027 ( 28) -0.1107 ( 29)
           0.1068 ( 35) -0.1150 ( 37) -0.2460 ( 41)  0.2646 ( 43) -0.1129 ( 44)
          -0.1202 ( 45)  0.2025 ( 46) -0.1422 ( 49) -0.1409 ( 50)  0.1984 ( 51)
           0.1254 ( 54)  0.1146 ( 55) -0.1356 ( 60) -0.1396 ( 62) -0.1314 ( 64)
          -0.1354 ( 68)
 CRD  5=  -0.3829 (  3) -0.4075 (  5) -0.4094 (  6) -0.2722 ( 16) -0.2715 ( 17)
          -0.2722 ( 24)  0.1156 ( 32)  0.1155 ( 33)  0.1225 ( 34)  0.1216 ( 36)
           0.1221 ( 38)  0.1211 ( 39) -0.1213 ( 54)  0.1217 ( 55) -0.1135 ( 59)
           0.1199 ( 62) -0.1205 ( 64)  0.1136 ( 67)
 CRD  6=   0.2030 (  2)  0.3395 (  3)  0.3437 (  4)  0.1900 (  5)  0.1784 (  6)
          -0.2123 ( 16) -0.2241 ( 17)  0.1860 ( 18)  0.1708 ( 19)  0.2466 ( 20)
           0.1660 ( 21)  0.1801 ( 22)  0.2477 ( 23) -0.2131 ( 24)  0.1220 ( 25)
          -0.1963 ( 31) -0.1343 ( 35) -0.1388 ( 37)  0.1061 ( 52) -0.1456 ( 54)
           0.1475 ( 55) -0.1052 ( 57) -0.1006 ( 59)  0.1247 ( 62) -0.1280 ( 64)
           0.1022 ( 67)
 CRD  7=  -0.3534 (  3) -0.1295 (  4)  0.2043 (  5)  0.2476 (  6)  0.1009 ( 10)
           0.1069 ( 14) -0.2907 ( 17) -0.2508 ( 18)  0.4318 ( 19)  0.4162 ( 21)
          -0.2174 ( 22)  0.1564 ( 32)  0.1395 ( 33) -0.1729 ( 36) -0.1661 ( 39)
 CRD  8=   0.2829 (  5) -0.2626 (  6)  0.1067 (  8) -0.1058 (  9) -0.2939 ( 16)
           0.1515 ( 18) -0.1938 ( 19) -0.4025 ( 20)  0.2369 ( 21) -0.1977 ( 22)
           0.4056 ( 23)  0.3166 ( 24) -0.1319 ( 32)  0.1506 ( 33)  0.1966 ( 34)
          -0.1903 ( 38)
 CRD  9=  -0.1860 (  2) -0.2736 (  4) -0.3919 ( 16)  0.3381 ( 17)  0.2575 ( 18)
           0.1128 ( 19) -0.1768 ( 20)  0.1457 ( 21)  0.2799 ( 22) -0.1664 ( 23)
          -0.3394 ( 24) -0.1190 ( 25)  0.1226 ( 31) -0.1784 ( 35) -0.1568 ( 37)
          -0.1391 ( 53)  0.1422 ( 56)
 CRD 10=  -0.1018 (  8)  0.1027 (  9) -0.1001 ( 14)  0.3322 ( 18) -0.3928 ( 19)
           0.3842 ( 20)  0.3891 ( 21) -0.3329 ( 22) -0.3799 ( 23)  0.1360 ( 32)
          -0.1349 ( 33)  0.1337 ( 34) -0.1197 ( 36) -0.1349 ( 38)  0.1198 ( 39)
 CRD 11=   0.1167 ( 11) -0.1141 ( 12) -0.1257 ( 13)  0.1105 ( 15)  0.4198 ( 16)
           0.3642 ( 18) -0.1939 ( 20) -0.3718 ( 22)  0.1609 ( 23) -0.4523 ( 24)
           0.1927 ( 35) -0.1457 ( 36) -0.2076 ( 37)  0.1429 ( 39)
 CRD 12=   0.2806 (  2)  0.4233 (  4)  0.1746 (  7)  0.4888 ( 17) -0.2023 ( 18)
           0.1794 ( 19) -0.2122 ( 20)  0.1823 ( 21) -0.1719 ( 22) -0.2395 ( 23)
           0.1466 ( 25)  0.1116 ( 30)  0.2199 ( 31) -0.1151 ( 32) -0.1260 ( 33)
 CRD 13=   0.2033 (  2) -0.1814 (  3)  0.3880 (  4)  0.1104 (  6) -0.1012 ( 10)
           0.1157 ( 11)  0.1034 ( 13)  0.1571 ( 16) -0.1127 ( 19) -0.1093 ( 20)
           0.1444 ( 24) -0.1935 ( 25)  0.1521 ( 26)  0.1273 ( 27)  0.1228 ( 28)
          -0.2912 ( 30) -0.1470 ( 34) -0.1388 ( 38)  0.1015 ( 42) -0.1463 ( 52)
          -0.1508 ( 53)  0.1124 ( 54) -0.1181 ( 55)  0.1517 ( 56)  0.1431 ( 57)
          -0.1608 ( 58) -0.1653 ( 59)  0.1453 ( 60) -0.1326 ( 61)  0.1197 ( 63)
           0.1112 ( 65)  0.1419 ( 66)  0.1505 ( 67) -0.1249 ( 68)
 CRD 14=  -0.1973 ( 43) -0.2146 ( 44) -0.1850 ( 45) -0.1694 ( 46) -0.1880 ( 47)
          -0.1868 ( 48) -0.2160 ( 49) -0.1863 ( 50) -0.1692 ( 51) -0.2130 ( 52)
          -0.1833 ( 53) -0.1861 ( 54) -0.1851 ( 55) -0.1845 ( 56) -0.2141 ( 57)
          -0.2142 ( 58) -0.1846 ( 59) -0.1717 ( 60) -0.1864 ( 61) -0.1716 ( 62)
          -0.1996 ( 63) -0.1716 ( 64) -0.1873 ( 65) -0.2153 ( 66) -0.1856 ( 67)
          -0.1715 ( 68) -0.1995 ( 69)
 CRD 15=  -0.1867 ( 10) -0.1224 ( 12)  0.1948 ( 14)  0.1383 ( 15) -0.1343 ( 41)
           0.2959 ( 43) -0.1169 ( 44)  0.2772 ( 46) -0.1642 ( 47) -0.1351 ( 48)
          -0.1489 ( 49) -0.1270 ( 50)  0.2801 ( 51) -0.1201 ( 54) -0.1048 ( 57)
          -0.1023 ( 58)  0.2168 ( 60) -0.1205 ( 61)  0.2197 ( 62)  0.2355 ( 63)
           0.2185 ( 64) -0.1421 ( 65) -0.1268 ( 66) -0.1049 ( 67)  0.2214 ( 68)
           0.2372 ( 69)
 CRD 16=   0.4237 (  7)  0.3533 (  8)  0.3469 (  9) -0.2468 ( 10) -0.2409 ( 11)
          -0.1632 ( 12) -0.1936 ( 13) -0.2105 ( 14) -0.1205 ( 15) -0.1283 ( 17)
           0.1155 ( 18) -0.1745 ( 20)  0.1321 ( 22) -0.1693 ( 23)  0.2012 ( 31)
           0.1368 ( 32)  0.1397 ( 33) -0.1002 ( 34) -0.1137 ( 35)
 CRD 17=   0.2525 ( 10)  0.3592 ( 11)  0.3161 ( 12) -0.3868 ( 13) -0.2804 ( 14)
          -0.3317 ( 15) -0.1051 ( 16)  0.1349 ( 18)  0.1706 ( 19) -0.1642 ( 21)
          -0.1197 ( 22)  0.1132 ( 24)  0.1010 ( 34)  0.1673 ( 35)  0.1251 ( 36)
          -0.1801 ( 37) -0.1120 ( 38) -0.1314 ( 39)  0.1054 ( 60)  0.1059 ( 62)
           0.1018 ( 63)  0.1041 ( 64)  0.1046 ( 68)  0.1005 ( 69)
 CRD 18=  -0.1044 (  3) -0.2727 (  7) -0.3174 (  8) -0.3177 (  9) -0.2969 ( 10)
          -0.2616 ( 11) -0.2932 ( 12) -0.2624 ( 13) -0.2987 ( 14) -0.2947 ( 15)
           0.1102 ( 16)  0.1180 ( 17)  0.1053 ( 20)  0.1053 ( 23)  0.1108 ( 24)
          -0.1119 ( 31) -0.1103 ( 32) -0.1103 ( 33) -0.1031 ( 34) -0.1062 ( 35)
          -0.1034 ( 36) -0.1066 ( 37) -0.1036 ( 38) -0.1039 ( 39)
 CRD 19=   0.1921 (  3) -0.1240 (  4) -0.1041 (  5) -0.1271 (  6)  0.2400 (  8)
           0.2604 (  9) -0.2697 ( 12) -0.2520 ( 15)  0.1173 ( 25)  0.2096 ( 30)
          -0.2014 ( 44) -0.1867 ( 45)  0.1935 ( 47) -0.2062 ( 48)  0.1869 ( 49)
           0.1711 ( 50) -0.1553 ( 52) -0.1406 ( 53)  0.1446 ( 54) -0.1600 ( 55)
           0.1222 ( 56)  0.1380 ( 57) -0.1625 ( 58) -0.1478 ( 59) -0.1673 ( 61)
           0.1635 ( 65)  0.1569 ( 66)  0.1411 ( 67)
 CRD 20=   0.1303 (  8) -0.1602 (  9)  0.4107 ( 11) -0.3077 ( 12) -0.4427 ( 13)
           0.1177 ( 14)  0.3047 ( 15) -0.2063 ( 35)  0.1691 ( 36)  0.2224 ( 37)
          -0.1671 ( 39) -0.1300 ( 45)  0.1014 ( 47)  0.1116 ( 48) -0.1227 ( 50)
          -0.1334 ( 53)  0.1082 ( 55) -0.1252 ( 56) -0.1223 ( 59)  0.1193 ( 61)
           0.1093 ( 65) -0.1148 ( 67)
 CRD 21=   0.3865 (  7) -0.1779 (  8) -0.1483 (  9)  0.3304 ( 10) -0.3300 ( 11)
          -0.2787 ( 13)  0.3231 ( 14) -0.2030 ( 31)  0.1056 ( 33) -0.1762 ( 34)
           0.1656 ( 35)  0.1393 ( 37) -0.1706 ( 38) -0.1007 ( 44)  0.1041 ( 46)
          -0.1057 ( 51) -0.1030 ( 52) -0.1038 ( 58)  0.1060 ( 60) -0.1039 ( 62)
           0.1027 ( 64) -0.1072 ( 68)
 CRD 22=  -0.4552 (  7)  0.2043 (  8)  0.1973 (  9)  0.1081 ( 10) -0.3309 ( 11)
           0.1986 ( 12) -0.3393 ( 13)  0.1080 ( 14)  0.2050 ( 15)  0.2315 ( 31)
          -0.1135 ( 32) -0.1169 ( 33)  0.1662 ( 35) -0.1074 ( 36)  0.1706 ( 37)
          -0.1109 ( 39) -0.1236 ( 46)  0.1239 ( 51) -0.1039 ( 54)  0.1060 ( 55)
          -0.1107 ( 59) -0.1074 ( 60)  0.1400 ( 62) -0.1397 ( 64)  0.1082 ( 67)
           0.1078 ( 68)
 CRD 23=  -0.3512 (  8)  0.3520 (  9)  0.3033 ( 10) -0.2957 ( 12) -0.3076 ( 14)
           0.2992 ( 15) -0.1874 ( 32)  0.1867 ( 33) -0.1662 ( 34)  0.1585 ( 36)
           0.1684 ( 38) -0.1601 ( 39)  0.1390 ( 43)  0.1166 ( 44)  0.1147 ( 49)
           0.1165 ( 52)  0.1147 ( 57)  0.1167 ( 58)  0.1389 ( 63)  0.1149 ( 66)
           0.1389 ( 69)
 CRD 24=   0.3961 (  8) -0.3842 (  9)  0.3181 ( 10) -0.1485 ( 11) -0.1638 ( 12)
           0.1600 ( 13) -0.2787 ( 14)  0.1124 ( 15)  0.2157 ( 32) -0.2230 ( 33)
          -0.1837 ( 34)  0.1618 ( 38) -0.1267 ( 43)  0.1044 ( 46) -0.1139 ( 47)
          -0.1053 ( 48)  0.1120 ( 51) -0.1256 ( 54) -0.1158 ( 55)  0.1177 ( 60)
          -0.1062 ( 61)  0.1253 ( 62) -0.1134 ( 63)  0.1170 ( 64) -0.1167 ( 65)
           0.1246 ( 68) -0.1141 ( 69)
 CRD 25=   0.2481 (  7) -0.1047 (  9) -0.2539 ( 10) -0.1347 ( 11)  0.3334 ( 12)
          -0.1072 ( 13) -0.2854 ( 14)  0.3475 ( 15) -0.1622 ( 31)  0.1568 ( 34)
          -0.2195 ( 36)  0.1787 ( 38) -0.2268 ( 39) -0.1521 ( 45)  0.1517 ( 50)
          -0.1624 ( 53) -0.1030 ( 55)  0.1592 ( 56) -0.1678 ( 59) -0.1085 ( 61)
           0.1096 ( 64)  0.1683 ( 67)
 CRD 26=  -0.2337 (  5)  0.2169 (  6)  0.1661 (  8) -0.1352 (  9)  0.2744 ( 10)
           0.1031 ( 11)  0.1247 ( 12) -0.1111 ( 13) -0.2736 ( 14) -0.1564 ( 15)
          -0.2089 ( 19) -0.1219 ( 20)  0.2130 ( 21)  0.1435 ( 23)  0.1560 ( 28)
          -0.1681 ( 29) -0.1346 ( 32)  0.1206 ( 33) -0.1816 ( 35) -0.1445 ( 36)
           0.1957 ( 37)  0.1384 ( 39) -0.2923 ( 41)  0.1527 ( 43)  0.1201 ( 54)
           0.1107 ( 55) -0.1305 ( 60) -0.1329 ( 62) -0.1241 ( 64) -0.1266 ( 68)
 CRD 27=  -0.7107 (  2)  0.2141 (  7)  0.1345 ( 11) -0.1054 ( 12)  0.1402 ( 13)
           0.1756 ( 17)  0.1020 ( 26) -0.1524 ( 32) -0.1576 ( 33)  0.1091 ( 35)
          -0.1001 ( 39) -0.1657 ( 59)  0.1120 ( 62) -0.1070 ( 64)  0.1648 ( 67)
 CRD 28=   0.2441 (  2) -0.1037 (  3)  0.2017 (  8)  0.2123 (  9) -0.1483 ( 11)
          -0.1905 ( 12) -0.1348 ( 13) -0.1720 ( 15) -0.1619 ( 16)  0.1434 ( 17)
          -0.1438 ( 18)  0.1594 ( 20) -0.1595 ( 22)  0.1521 ( 23) -0.1399 ( 24)
          -0.2810 ( 25)  0.1215 ( 26) -0.2369 ( 31) -0.1046 ( 32) -0.1134 ( 33)
           0.1967 ( 34)  0.1121 ( 35)  0.1832 ( 38)  0.2248 ( 44)  0.1910 ( 45)
          -0.1552 ( 47)  0.1660 ( 48) -0.2087 ( 49) -0.1761 ( 50)
 CRD 29=  -0.3647 (  2)  0.2694 (  3)  0.3363 (  4)  0.2154 (  5)  0.2113 (  6)
          -0.1942 (  7) -0.1375 (  8) -0.1380 (  9) -0.1062 ( 10) -0.1688 ( 11)
          -0.1007 ( 12) -0.1706 ( 13) -0.1089 ( 14) -0.1030 ( 15) -0.1442 ( 16)
          -0.1807 ( 17) -0.1265 ( 18) -0.1282 ( 19) -0.1569 ( 20) -0.1259 ( 21)
          -0.1243 ( 22) -0.1567 ( 23) -0.1468 ( 24)  0.1402 ( 31)  0.1810 ( 32)
           0.1814 ( 33)  0.1473 ( 34)  0.1023 ( 35)  0.1522 ( 36)  0.1050 ( 37)
           0.1494 ( 38)  0.1546 ( 39)
 CRD 30=   0.4782 (  5) -0.4437 (  6)  0.1127 (  9)  0.1029 ( 10)  0.1597 ( 11)
           0.1671 ( 12) -0.1720 ( 13) -0.1231 ( 14) -0.1679 ( 15)  0.1602 ( 16)
          -0.1843 ( 18) -0.1548 ( 19)  0.1402 ( 21)  0.1743 ( 22) -0.1726 ( 24)
          -0.1885 ( 34) -0.1517 ( 35) -0.1421 ( 36)  0.1635 ( 37)  0.1939 ( 38)
           0.1622 ( 39)  0.1462 ( 41)
 CRD 31=  -0.2938 (  2) -0.1754 (  3)  0.4943 (  4) -0.2303 (  5) -0.2347 (  6)
          -0.1363 (  7)  0.1371 (  8)  0.1382 (  9)  0.1592 ( 10) -0.1150 ( 11)
           0.1471 ( 12) -0.1166 ( 13)  0.1585 ( 14)  0.1455 ( 15) -0.2013 ( 31)
          -0.2192 ( 35) -0.2179 ( 37)  0.1346 ( 54) -0.1351 ( 55)  0.1267 ( 59)
          -0.1334 ( 62)  0.1341 ( 64) -0.1268 ( 67)
 CRD 32=   0.4812 (  3) -0.2033 (  5) -0.2564 (  6) -0.1689 (  7)  0.1933 ( 10)
           0.1057 ( 11) -0.1248 ( 12)  0.1976 ( 14) -0.1451 ( 15) -0.1322 ( 20)
          -0.1335 ( 23) -0.1810 ( 25)  0.1042 ( 26)  0.1535 ( 32)  0.1343 ( 33)
          -0.2068 ( 36) -0.2000 ( 39)  0.2442 ( 44) -0.1128 ( 47)  0.1140 ( 48)
          -0.2266 ( 49)
 CRD 33=  -0.1560 (  8)  0.1561 (  9)  0.2648 ( 10) -0.2634 ( 12) -0.2571 ( 14)
           0.2556 ( 15)  0.1082 ( 19) -0.1103 ( 21)  0.1203 ( 32) -0.1191 ( 33)
           0.2091 ( 34) -0.1930 ( 36) -0.2039 ( 38)  0.1865 ( 39) -0.1793 ( 44)
           0.1052 ( 45)  0.1063 ( 46)  0.1170 ( 47)  0.1170 ( 48) -0.1872 ( 49)
           0.1061 ( 50)  0.1055 ( 51) -0.1781 ( 52)  0.1064 ( 53)  0.1199 ( 54)
           0.1182 ( 55)  0.1090 ( 56) -0.1843 ( 57) -0.1687 ( 58)  0.1158 ( 59)
           0.1276 ( 61)  0.1287 ( 65) -0.1755 ( 66)  0.1178 ( 67)
 CRD 34=   0.2425 (  8) -0.2566 (  9)  0.2106 ( 11) -0.1823 ( 12) -0.2270 ( 13)
           0.1647 ( 15)  0.1203 ( 20) -0.1138 ( 23) -0.1232 ( 28)  0.1328 ( 29)
          -0.1954 ( 32)  0.1814 ( 33)  0.1481 ( 35) -0.1593 ( 36) -0.1597 ( 37)
           0.1477 ( 39)  0.1341 ( 41)  0.1618 ( 43)  0.1732 ( 45) -0.1382 ( 46)
          -0.1013 ( 48)  0.1760 ( 50) -0.1183 ( 51)  0.1354 ( 53) -0.1144 ( 54)
          -0.1390 ( 55)  0.1401 ( 56)  0.2055 ( 59) -0.1296 ( 60) -0.1098 ( 62)
           0.1704 ( 63) -0.1347 ( 64)  0.2052 ( 67) -0.1148 ( 68)  0.1653 ( 69)
 CRD 35=  -0.3214 (  7)  0.1498 (  8)  0.1309 (  9) -0.1991 ( 10)  0.1791 ( 11)
           0.1429 ( 13) -0.1927 ( 14)  0.1133 ( 17)  0.1099 ( 30) -0.2282 ( 31)
           0.1278 ( 32)  0.1420 ( 33) -0.1663 ( 34)  0.1270 ( 35)  0.1014 ( 37)
          -0.1583 ( 38)  0.1890 ( 46) -0.1945 ( 47)  0.1792 ( 48) -0.2024 ( 51)
          -0.2127 ( 54)  0.1942 ( 55)  0.1600 ( 60)  0.1681 ( 61) -0.2313 ( 62)
           0.2177 ( 64) -0.1800 ( 65) -0.1737 ( 68)
 CRD 36=  -0.2291 (  8)  0.2129 (  9) -0.1698 ( 10)  0.2002 ( 11) -0.2157 ( 13)
           0.1573 ( 14) -0.1121 ( 20)  0.1169 ( 23)  0.1031 ( 24)  0.1593 ( 32)
          -0.1709 ( 33) -0.1237 ( 34)  0.1653 ( 35) -0.1782 ( 37)  0.1141 ( 38)
          -0.1973 ( 41) -0.1586 ( 43)  0.1210 ( 45) -0.1596 ( 47) -0.1603 ( 48)
           0.1014 ( 50)  0.1122 ( 51)  0.1062 ( 52)  0.1912 ( 53)  0.1825 ( 56)
           0.1322 ( 57)  0.1489 ( 59) -0.1323 ( 61) -0.2707 ( 63) -0.1177 ( 65)
           0.1433 ( 67) -0.2676 ( 69)
 CRD 37=   0.2533 (  3) -0.1116 (  5) -0.1399 (  6)  0.1182 (  7) -0.1180 ( 10)
           0.2123 ( 12) -0.1404 ( 14)  0.2155 ( 15) -0.1358 ( 18)  0.1358 ( 19)
           0.1258 ( 21) -0.1262 ( 22) -0.1864 ( 25)  0.1045 ( 26)  0.1120 ( 30)
           0.1359 ( 31) -0.1037 ( 34)  0.1385 ( 36) -0.1167 ( 38)  0.1443 ( 39)
           0.1086 ( 40) -0.1170 ( 42)  0.2401 ( 45) -0.1045 ( 46) -0.1373 ( 47)
           0.1618 ( 48) -0.2357 ( 50) -0.2369 ( 52)  0.2155 ( 57) -0.2648 ( 58)
          -0.1175 ( 60)  0.2501 ( 66)  0.1204 ( 68)
 CRD 38=   0.2531 (  4)  0.1603 (  7)  0.1606 ( 11)  0.1606 ( 13) -0.1237 ( 16)
          -0.1231 ( 17) -0.1237 ( 24) -0.1065 ( 25) -0.1055 ( 26) -0.1056 ( 27)
           0.1081 ( 31)  0.1082 ( 35)  0.1082 ( 37) -0.1198 ( 45) -0.1194 ( 46)
          -0.1196 ( 47)  0.1196 ( 48)  0.1198 ( 50)  0.1194 ( 51) -0.1424 ( 52)
          -0.2621 ( 53)  0.2621 ( 56)  0.1424 ( 57)  0.1421 ( 58) -0.2611 ( 60)
           0.2618 ( 61) -0.1417 ( 63) -0.2618 ( 65) -0.1422 ( 66)  0.2612 ( 68)
           0.1417 ( 69)
 CRD 39=  -0.1457 (  5)  0.1353 (  6) -0.1053 ( 26)  0.1134 ( 27)  0.5651 ( 40)
           0.4288 ( 41)  0.5553 ( 42)  0.1114 ( 43)  0.1399 ( 46)  0.1414 ( 51)

 THE DETERMINANT OF THE G MATRIX IS 10**(   -18)


                     --------------------
                     INTERNAL COORDINATES
                     --------------------

                 - - ATOMS - -         COORDINATE      COORDINATE
 NO.   TYPE    I  J  K  L  M  N        (BOHR,RAD)       (ANG,DEG)
 ----------------------------------------------------------------
   1 BEND      1  3  2                  2.7925268     160.0000000
   2 STRETCH   1  3                     3.9655853       2.0984975
   3 STRETCH   2  4                     3.3484320       1.7719140
   4 STRETCH   2  3                     3.2154201       1.7015272
   5 STRETCH   2  6                     3.3484566       1.7719271
   6 STRETCH   2  5                     3.3484461       1.7719215
   7 STRETCH   4  8                     2.0698887       1.0953380
   8 STRETCH   4  7                     2.0585963       1.0893623
   9 STRETCH   4  9                     2.0585769       1.0893521
  10 STRETCH   5 12                     2.0585887       1.0893583
  11 STRETCH   5 11                     2.0699049       1.0953466
  12 STRETCH   5 10                     2.0585850       1.0893563
  13 STRETCH   6 15                     2.0699113       1.0953500
  14 STRETCH   6 14                     2.0585734       1.0893502
  15 STRETCH   6 13                     2.0585905       1.0893593
  16 BEND      2  5 11                  1.8617257     106.6690242
  17 BEND      2  4  8                  1.8617503     106.6704366
  18 BEND      2  6 13                  1.9422064     111.2802298
  19 BEND      2  6 14                  1.9421731     111.2783195
  20 BEND      2  4  9                  1.9421657     111.2778965
  21 BEND      2  5 12                  1.9421929     111.2794586
  22 BEND      2  5 10                  1.9422210     111.2810643
  23 BEND      2  4  7                  1.9421835     111.2789152
  24 BEND      2  6 15                  1.8617547     106.6706876
  25 BEND      3  2  4                  1.8566295     106.3770343
  26 BEND      3  2  5                  1.8564257     106.3653596
  27 BEND      3  2  6                  1.8563668     106.3619840
  28 BEND      4  2  6                  1.9615455     112.3882757
  29 BEND      4  2  5                  1.9615420     112.3880789
  30 BEND      5  2  6                  1.9615340     112.3876199
  31 BEND      7  4  9                  1.9411093     111.2173696
  32 BEND      7  4  8                  1.8865465     108.0911531
  33 BEND      8  4  9                  1.8865760     108.0928403
  34 BEND     10  5 11                  1.8865249     108.0899157
  35 BEND     10  5 12                  1.9411462     111.2194854
  36 BEND     11  5 12                  1.8865127     108.0892176
  37 BEND     13  6 14                  1.9411688     111.2207796
  38 BEND     13  6 15                  1.8864953     108.0882171
  39 BEND     14  6 15                  1.8865259     108.0899695
  40 TORSION   1  3  2  5               0.9826059      56.2991703
  41 TORSION   1  3  2  4               3.0770573     176.3023961
  42 TORSION   1  3  2  6              -1.1117026     -63.6958676
  43 TORSION   3  2  4  8               3.1415018     179.9947971
  44 TORSION   3  2  6 15               3.1414176     179.9899701
  45 TORSION   3  2  6 14              -1.0879358     -62.3341312
  46 TORSION   3  2  4  7              -1.0878237     -62.3277076
  47 TORSION   3  2  5 10              -1.0876530     -62.3179262
  48 TORSION   3  2  6 13               1.0876044      62.3151424
  49 TORSION   3  2  5 11              -3.1414924    -179.9942563
  50 TORSION   3  2  5 12               1.0878833      62.3311241
  51 TORSION   3  2  4  9               1.0876163      62.3158257
  52 TORSION   4  2  6 15              -1.1167595     -63.9856053
  53 TORSION   4  2  6 14               0.9370724      53.6902935
  54 TORSION   4  2  5 10              -3.1126949    -178.3442782
  55 TORSION   4  2  6 13               3.1126126     178.3395670
  56 TORSION   4  2  5 12              -0.9371585     -53.6952280
  57 TORSION   4  2  5 11               1.1166510      63.9793917
  58 TORSION   5  2  6 15               1.1166606      63.9799412
  59 TORSION   5  2  6 14              -3.1126928    -178.3441601
  60 TORSION   5  2  4  7               0.9370955      53.6916197
  61 TORSION   5  2  6 13              -0.9371526     -53.6948865
  62 TORSION   5  2  4  9               3.1125356     178.3351530
  63 TORSION   5  2  4  8              -1.1167642     -63.9858756
  64 TORSION   6  2  4  7              -3.1126739    -178.3430761
  65 TORSION   6  2  5 10               0.9370685      53.6900713
  66 TORSION   6  2  5 11              -1.1167709     -63.9862587
  67 TORSION   6  2  5 12               3.1126049     178.3391216
  68 TORSION   6  2  4  9              -0.9372338     -53.6995428
  69 TORSION   6  2  4  8               1.1166517      63.9794286

     ------------------------------------------
     THE POINT GROUP IS C1 , NAXIS= 0, ORDER= 1
     ------------------------------------------

 -- VARIATIONAL SPACE WILL BE RESTRICTED TO PURE SPHERICAL HARMONICS ONLY --
 AFTER EXCLUDING CONTAMINANT COMBINATIONS FROM THE CARTESIAN GAUSSIAN BASIS
 SET, THE NUMBER OF SPHERICAL HARMONICS KEPT IN THE VARIATION SPACE IS  316

     DIMENSIONS OF THE SYMMETRY SUBSPACES ARE
 A   =  316

 ..... DONE SETTING UP THE RUN .....
 CPU     0: STEP CPU TIME=     0.08 TOTAL CPU TIME=        0.1 (    0.0 MIN)
 TOTAL WALL CLOCK TIME=        0.2 SECONDS, CPU UTILIZATION IS  50.00%


          -----------------------------
          STATIONARY POINT LOCATION RUN
          -----------------------------


           ** GEOMETRY CONSTRAINTS ARE BEING APPLIED. **

          TRANSFORMING DISPLACEMENT FROM INTERNALS TO CARTESIANS
          THE ROOT MEAN SQUARE ERROR IN ITERATION   1 IS   0.00000000
 WARNING! THE RADIUS IN CARTESIANS IS    0.00000
 OBTAINING INITIAL HESSIAN, HESS=GUESS   
 DIAGONAL GUESS HESSIAN IN INTERNAL COORDS IS
     1  0.3179     2  0.5872     3  0.4357     4  0.4035     5  0.4357
     6  0.4357     7  0.3428     8  0.3468     9  0.3468    10  0.3468
    11  0.3428    12  0.3468    13  0.3428    14  0.3468    15  0.3468
    16  0.2410    17  0.2410    18  0.2414    19  0.2414    20  0.2414
    21  0.2414    22  0.2414    23  0.2414    24  0.2410    25  0.2834
    26  0.2834    27  0.2834    28  0.2919    29  0.2919    30  0.2919
    31  0.2035    32  0.2032    33  0.2032    34  0.2032    35  0.2035
    36  0.2032    37  0.2035    38  0.2032    39  0.2032    40  0.2500
    41  0.2500    42  0.2500    43  0.2500    44  0.2500    45  0.2500
    46  0.2500    47  0.2500    48  0.2500    49  0.2500    50  0.2500
    51  0.2500    52  0.2500    53  0.2500    54  0.2500    55  0.2500
    56  0.2500    57  0.2500    58  0.2500    59  0.2500    60  0.2500
    61  0.2500    62  0.2500    63  0.2500    64  0.2500    65  0.2500
    66  0.2500    67  0.2500    68  0.2500    69  0.2500
 TRANSFORMING HESSIAN TO SYMMETRY COORDINATES

          PARAMETERS CONTROLLING GEOMETRY SEARCH ARE
          METHOD =QA                  UPHESS =BFGS    
          NNEG   =         0          NFRZ   =         0
          NSTEP  =        50          IFOLOW =         1
          HESS   =GUESS               RESTAR =         F
          IHREP  =         0          HSSEND =         F
          NPRT   =         0          NPUN   =         0
          OPTTOL = 1.000E-04          RMIN   = 1.500E-03
          RMAX   = 1.000E-01          RLIM   = 7.000E-02
          DXMAX  = 3.000E-01          PURIFY =         F
          MOVIE  =         F          TRUPD  =         T
          TRMAX  = 5.000E-01          TRMIN  = 5.000E-02
          ITBMAT =         5          STPT   =         F
          STSTEP = 1.000E-02          PROJCT=          T

 BEGINNING GEOMETRY SEARCH POINT NSERCH=   0 ...

 COORDINATES OF ALL ATOMS ARE (ANGS)
   ATOM   CHARGE       X              Y              Z
 ------------------------------------------------------------
 LA         57.0   0.3143500000   0.8802800000  -4.0288700000
 P          15.0   0.0919108873   0.2360628574  -0.3485141219
 O           8.0  -0.1001300000   0.6702700000  -1.9824600000
 C           6.0  -1.3085010322   0.8976906992   0.5121684032
 C           6.0   1.6172377042   0.9628224601   0.1852502065
 C           6.0   0.1362598649  -1.5347622537  -0.3045019948
 H           1.0  -1.3337815309   1.9849342531   0.4491398524
 H           1.0  -1.1897330595   0.6207014408   1.5652289111
 H           1.0  -2.2380248908   0.4600699643   0.1500062386
 H           1.0   2.4623313867   0.5646207292  -0.3750615323
 H           1.0   1.7459285595   0.6861381961   1.2372334134
 H           1.0   1.5802120403   2.0497977354   0.1234815463
 H           1.0   0.9872525385  -1.9229357289  -0.8629251647
 H           1.0  -0.7990887791  -1.9626733778  -0.6632482943
 H           1.0   0.2600243648  -1.8199776130   0.7457960907


                     --------------------
                     INTERNAL COORDINATES
                     --------------------

                 - - ATOMS - -         COORDINATE      COORDINATE
 NO.   TYPE    I  J  K  L  M  N        (BOHR,RAD)       (ANG,DEG)
 ----------------------------------------------------------------
   1 BEND      1  3  2                  2.7925268     160.0000000
   2 STRETCH   1  3                     3.9655853       2.0984975
   3 STRETCH   2  4                     3.3484320       1.7719140
   4 STRETCH   2  3                     3.2154201       1.7015272
   5 STRETCH   2  6                     3.3484566       1.7719271
   6 STRETCH   2  5                     3.3484461       1.7719215
   7 STRETCH   4  8                     2.0698887       1.0953380
   8 STRETCH   4  7                     2.0585963       1.0893623
   9 STRETCH   4  9                     2.0585769       1.0893521
  10 STRETCH   5 12                     2.0585887       1.0893583
  11 STRETCH   5 11                     2.0699049       1.0953466
  12 STRETCH   5 10                     2.0585850       1.0893563
  13 STRETCH   6 15                     2.0699113       1.0953500
  14 STRETCH   6 14                     2.0585734       1.0893502
  15 STRETCH   6 13                     2.0585905       1.0893593
  16 BEND      2  5 11                  1.8617257     106.6690242
  17 BEND      2  4  8                  1.8617503     106.6704366
  18 BEND      2  6 13                  1.9422064     111.2802298
  19 BEND      2  6 14                  1.9421731     111.2783195
  20 BEND      2  4  9                  1.9421657     111.2778965
  21 BEND      2  5 12                  1.9421929     111.2794586
  22 BEND      2  5 10                  1.9422210     111.2810643
  23 BEND      2  4  7                  1.9421835     111.2789152
  24 BEND      2  6 15                  1.8617547     106.6706876
  25 BEND      3  2  4                  1.8566295     106.3770343
  26 BEND      3  2  5                  1.8564257     106.3653596
  27 BEND      3  2  6                  1.8563668     106.3619840
  28 BEND      4  2  6                  1.9615455     112.3882757
  29 BEND      4  2  5                  1.9615420     112.3880789
  30 BEND      5  2  6                  1.9615340     112.3876199
  31 BEND      7  4  9                  1.9411093     111.2173696
  32 BEND      7  4  8                  1.8865465     108.0911531
  33 BEND      8  4  9                  1.8865760     108.0928403
  34 BEND     10  5 11                  1.8865249     108.0899157
  35 BEND     10  5 12                  1.9411462     111.2194854
  36 BEND     11  5 12                  1.8865127     108.0892176
  37 BEND     13  6 14                  1.9411688     111.2207796
  38 BEND     13  6 15                  1.8864953     108.0882171
  39 BEND     14  6 15                  1.8865259     108.0899695
  40 TORSION   1  3  2  5               0.9826059      56.2991703
  41 TORSION   1  3  2  4               3.0770573     176.3023961
  42 TORSION   1  3  2  6              -1.1117026     -63.6958676
  43 TORSION   3  2  4  8               3.1415018     179.9947971
  44 TORSION   3  2  6 15               3.1414176     179.9899701
  45 TORSION   3  2  6 14              -1.0879358     -62.3341312
  46 TORSION   3  2  4  7              -1.0878237     -62.3277076
  47 TORSION   3  2  5 10              -1.0876530     -62.3179262
  48 TORSION   3  2  6 13               1.0876044      62.3151424
  49 TORSION   3  2  5 11              -3.1414924    -179.9942563
  50 TORSION   3  2  5 12               1.0878833      62.3311241
  51 TORSION   3  2  4  9               1.0876163      62.3158257
  52 TORSION   4  2  6 15              -1.1167595     -63.9856053
  53 TORSION   4  2  6 14               0.9370724      53.6902935
  54 TORSION   4  2  5 10              -3.1126949    -178.3442782
  55 TORSION   4  2  6 13               3.1126126     178.3395670
  56 TORSION   4  2  5 12              -0.9371585     -53.6952280
  57 TORSION   4  2  5 11               1.1166510      63.9793917
  58 TORSION   5  2  6 15               1.1166606      63.9799412
  59 TORSION   5  2  6 14              -3.1126928    -178.3441601
  60 TORSION   5  2  4  7               0.9370955      53.6916197
  61 TORSION   5  2  6 13              -0.9371526     -53.6948865
  62 TORSION   5  2  4  9               3.1125356     178.3351530
  63 TORSION   5  2  4  8              -1.1167642     -63.9858756
  64 TORSION   6  2  4  7              -3.1126739    -178.3430761
  65 TORSION   6  2  5 10               0.9370685      53.6900713
  66 TORSION   6  2  5 11              -1.1167709     -63.9862587
  67 TORSION   6  2  5 12               3.1126049     178.3391216
  68 TORSION   6  2  4  9              -0.9372338     -53.6995428
  69 TORSION   6  2  4  8               1.1166517      63.9794286

          ********************
          1 ELECTRON INTEGRALS
          ********************
 TIME TO DO ORDINARY INTEGRALS=      0.02
 TIME TO DO      ECP INTEGRALS=      0.06
 ...... END OF ONE-ELECTRON INTEGRALS ......
 CPU     0: STEP CPU TIME=     0.08 TOTAL CPU TIME=        0.2 (    0.0 MIN)
 TOTAL WALL CLOCK TIME=        0.3 SECONDS, CPU UTILIZATION IS  57.14%

          -------------
          GUESS OPTIONS
          -------------
          GUESS =HUCKEL            NORB  =       0          NORDER=       0
          MIX   =       F          PRTMO =       F          PUNMO =       F
          TOLZ  = 1.0E-08          TOLE  = 1.0E-05
          SYMDEN=       F          PURIFY=       F

 INITIAL GUESS ORBITALS GENERATED BY HUCKEL   ROUTINE.
 HUCKEL GUESS REQUIRES    916545 WORDS.

 STATISTICS FOR GENERATION OF SYMMETRY ORBITAL -Q- MATRIX
 NUMBER OF CARTESIAN ATOMIC ORBITALS=        354
 NUMBER OF SPHERICAL CONTAMINANTS DROPPED=    38
 NUMBER OF LINEARLY DEPENDENT MOS DROPPED=     0
 TOTAL NUMBER OF MOS IN VARIATION SPACE=     316

 SYMMETRIES FOR INITIAL GUESS ORBITALS FOLLOW.   BOTH SET(S).
    29 ORBITALS ARE OCCUPIED (   13 CORE ORBITALS).
    14=A       15=A       16=A       17=A       18=A       19=A       20=A   
    21=A       22=A       23=A       24=A       25=A       26=A       27=A   
    28=A       29=A       30=A       31=A       32=A       33=A       34=A   
    35=A       36=A       37=A       38=A       39=A   
 ...... END OF INITIAL ORBITAL SELECTION ......
 CPU     0: STEP CPU TIME=     0.21 TOTAL CPU TIME=        0.4 (    0.0 MIN)
 TOTAL WALL CLOCK TIME=        0.8 SECONDS, CPU UTILIZATION IS  48.05%

                    ----------------------
                    AO INTEGRAL TECHNOLOGY
                    ----------------------
     S,P,L SHELL ROTATED AXIS INTEGRALS, REPROGRAMMED BY
        KAZUYA ISHIMURA (IMS) AND JOSE SIERRA (SYNSTAR).
     S,P,D,L SHELL ROTATED AXIS INTEGRALS PROGRAMMED BY
        KAZUYA ISHIMURA (INSTITUTE FOR MOLECULAR SCIENCE).
     S,P,D,F,G SHELL TO TOTAL QUARTET ANGULAR MOMENTUM SUM 5,
        ERIC PROGRAM BY GRAHAM FLETCHER (ELORET AND NASA ADVANCED
        SUPERCOMPUTING DIVISION, AMES RESEARCH CENTER).
     S,P,D,F,G,L SHELL GENERAL RYS QUADRATURE PROGRAMMED BY
        MICHEL DUPUIS (PACIFIC NORTHWEST NATIONAL LABORATORY).

          --------------------
          2 ELECTRON INTEGRALS
          --------------------

 DIRECT SCF METHOD SKIPS INTEGRAL STORAGE ON DISK.
 DIRECT TRANSFORMATION SKIPS AO INTEGRAL STORAGE ON DISK.
  ...... END OF TWO-ELECTRON INTEGRALS .....
 CPU     0: STEP CPU TIME=     0.01 TOTAL CPU TIME=        0.4 (    0.0 MIN)
 TOTAL WALL CLOCK TIME=        0.8 SECONDS, CPU UTILIZATION IS  48.72%

          --------------------------
                 RHF SCF CALCULATION
          --------------------------

     NUCLEAR ENERGY =       335.7920625739
     MAXIT =  200     NPUNCH=    2
     EXTRAP=T  DAMP=F  SHIFT=F  RSTRCT=F  DIIS=F  DEM=F  SOSCF=T
     DENSITY MATRIX CONV=  2.00E-06
     SOSCF WILL OPTIMIZE    8323 ORBITAL ROTATIONS, SOGTOL=   0.250
     MEMORY REQUIRED FOR RHF ITERS=    982670 WORDS.

 DIRECT SCF CALCULATION, SCHWRZ=T   FDIFF=F,  DIRTHR=  0.00E+00 NITDIR=10
 SCHWARZ INEQUALITY OVERHEAD:     62192 INTEGRALS, T=        0.01

                                                                                   NONZERO     BLOCKS
 ITER EX DEM     TOTAL ENERGY        E CHANGE  DENSITY CHANGE     ORB. GRAD      INTEGRALS    SKIPPED
   1  0  0     -563.3601102321  -563.3601102321   0.373205630   0.000000000     1470836848    4133591
          ---------------START SECOND ORDER SCF---------------
   2  1  0     -564.4997980815    -1.1396878494   0.161843483   0.091028725     1458127100    4436481
   3  2  0     -564.6230058547    -0.1232077731   0.064183205   0.060399380     1456849297    4451369
   4  3  0     -564.7172401392    -0.0942342845   0.020408119   0.010544859     1457274145    4439698
   5  4  0     -564.7197495961    -0.0025094569   0.006469907   0.005652658     1457851724    4430850
   6  5  0     -564.7203891710    -0.0006395749   0.002726662   0.001142267     1457898288    4429539
   7  6  0     -564.7204473668    -0.0000581958   0.000958918   0.000433453     1457916978    4429318
   8  7  0     -564.7204544351    -0.0000070683   0.000415154   0.000162536     1457939327    4429212
   9  8  0     -564.7204555928    -0.0000011577   0.000173907   0.000059093     1457944545    4429192
  10  9  0     -564.7204558122    -0.0000002195   0.000074198   0.000022015     1457943621    4429247
  11 10  0     -564.7204558534    -0.0000000412   0.000037287   0.000011022     1457939821    4429275
  12 11  0     -564.7204558590    -0.0000000055   0.000012701   0.000005159     1457940857    4429271
  13 12  0     -564.7204558598    -0.0000000008   0.000004593   0.000002395     1457939881    4429273
  14 13  0     -564.7204558599    -0.0000000001   0.000002480   0.000000966     1457939867    4429273
  15 14  0     -564.7204558599    -0.0000000000   0.000000955   0.000000310     1457939877    4429272

          -----------------
          DENSITY CONVERGED
          -----------------
     TIME TO FORM FOCK OPERATORS=      98.6 SECONDS (       6.6 SEC/ITER)
     FOCK TIME ON FIRST ITERATION=       6.6, LAST ITERATION=       6.5
     TIME TO SOLVE SCF EQUATIONS=       0.4 SECONDS (       0.0 SEC/ITER)

 FINAL RHF ENERGY IS     -564.7204558599 AFTER  15 ITERATIONS

          ------------
          EIGENVECTORS
          ------------

                      1          2          3          4          5
                  -80.4743   -21.0467   -11.6412   -11.6400   -11.6278
                     A          A          A          A          A   
    1  LA 1  S    0.000003  -0.000019   0.000001   0.000001   0.000007
    2  LA 1  X   -0.000002   0.000009  -0.000008   0.000002   0.000006
    3  LA 1  Y    0.000001  -0.000004  -0.000005   0.000012  -0.000008
    4  LA 1  Z    0.000003  -0.000004  -0.000007  -0.000003   0.000017
    5  LA 1 XX    0.000003   0.000002  -0.000002  -0.000014   0.000004
    6  LA 1 YY    0.000003  -0.000005  -0.000014   0.000011   0.000001
    7  LA 1 ZZ   -0.000006   0.000003   0.000016   0.000003  -0.000005
    8  LA 1 XY   -0.000000   0.000004   0.000007   0.000002  -0.000005
    9  LA 1 XZ    0.000003  -0.000024   0.000016  -0.000007   0.000005
   10  LA 1 YZ    0.000001   0.000012   0.000010  -0.000018  -0.000002
   11  LA 1 XX   -0.000001   0.000071   0.000006   0.000037   0.000025
   12  LA 1 YY    0.000000   0.000071   0.000039  -0.000013   0.000029
   13  LA 1 ZZ    0.000001  -0.000142  -0.000045  -0.000024  -0.000054
   14  LA 1 XY   -0.000000  -0.000017  -0.000016  -0.000003   0.000009
   15  LA 1 XZ    0.000005   0.000064  -0.000020   0.000024   0.000001
   16  LA 1 YZ   -0.000003   0.000016  -0.000018   0.000032   0.000024
   17  LA 1  S   -0.000006  -0.000140  -0.000100  -0.000100  -0.000135
   18  LA 1  X    0.000001   0.000038  -0.000008   0.000019   0.000019
   19  LA 1  Y   -0.000001   0.000001  -0.000020   0.000023  -0.000003
   20  LA 1  Z    0.000003  -0.000104  -0.000029  -0.000020  -0.000033
   21  LA 1  S    0.000002   0.000051   0.000200   0.000199   0.000195
   22  LA 1  X   -0.000001  -0.000030   0.000044  -0.000012  -0.000034
   23  LA 1  Y    0.000001   0.000007   0.000004  -0.000088  -0.000013
   24  LA 1  Z   -0.000002   0.000041   0.000172   0.000152   0.000156
   25  LA 1  S   -0.000016  -0.000047  -0.000003  -0.000005  -0.000036
   26  LA 1  X    0.000007   0.000002   0.000016  -0.000003  -0.000004
   27  LA 1  Y    0.000000   0.000026   0.000012  -0.000022   0.000018
   28  LA 1  Z   -0.000020  -0.000134   0.000007  -0.000002  -0.000071
   29  LA 1 XX    0.000000  -0.000013  -0.000035  -0.000064  -0.000043
   30  LA 1 YY   -0.000000  -0.000017  -0.000066  -0.000005  -0.000051
   31  LA 1 ZZ    0.000000   0.000030   0.000101   0.000069   0.000094
   32  LA 1 XY    0.000000   0.000005   0.000005  -0.000003  -0.000009
   33  LA 1 XZ   -0.000002  -0.000031   0.000052  -0.000008  -0.000019
   34  LA 1 YZ    0.000001   0.000006  -0.000001  -0.000081  -0.000026
   35  P  2  S    1.000138   0.000086   0.000077   0.000079   0.000087
   36  P  2  S    0.000177   0.000535   0.000553   0.000564   0.000617
   37  P  2  S    0.000191   0.000711   0.000864   0.000880   0.000949
   38  P  2  S   -0.000945  -0.000254  -0.000267  -0.000274  -0.000312
   39  P  2  S   -0.000357  -0.002463   0.000021   0.000048   0.000236
   40  P  2  X   -0.000003  -0.000018   0.000420   0.000012  -0.000428
   41  P  2  Y    0.000018   0.000042   0.000204  -0.000493   0.000205
   42  P  2  Z   -0.000080  -0.000159   0.000152   0.000016   0.000248
   43  P  2  X   -0.000002  -0.000050   0.001106   0.000031  -0.001113
   44  P  2  Y    0.000016   0.000116   0.000542  -0.001294   0.000535
   45  P  2  Z   -0.000074  -0.000437   0.000383   0.000025   0.000634
   46  P  2  X    0.000001   0.000016  -0.000045  -0.000002   0.000056
   47  P  2  Y   -0.000009  -0.000037  -0.000019   0.000057  -0.000025
   48  P  2  Z    0.000041   0.000141  -0.000031  -0.000016  -0.000041
   49  P  2  X   -0.000021  -0.000055  -0.000044  -0.000021   0.000046
   50  P  2  Y    0.000026  -0.000225  -0.000060  -0.000022  -0.000077
   51  P  2  Z   -0.000074   0.001245   0.000286   0.000299   0.000228
   52  P  2 XX   -0.000004  -0.000091   0.000145  -0.000154   0.000109
   53  P  2 YY   -0.000003  -0.000073  -0.000078   0.000249  -0.000095
   54  P  2 ZZ    0.000006   0.000164  -0.000067  -0.000095  -0.000013
   55  P  2 XY    0.000000  -0.000004   0.000168  -0.000010  -0.000151
   56  P  2 XZ    0.000001   0.000031   0.000115   0.000012  -0.000172
   57  P  2 YZ   -0.000003  -0.000076   0.000031  -0.000011   0.000068
   58  P  2 XX   -0.000023  -0.000090   0.000377  -0.000104   0.000246
   59  P  2 YY   -0.000020  -0.000112  -0.000081   0.000548  -0.000103
   60  P  2 ZZ    0.000044   0.000201  -0.000296  -0.000444  -0.000143
   61  P  2 XY   -0.000005  -0.000059   0.000212  -0.000040  -0.000187
   62  P  2 XZ    0.000013   0.000042   0.000274  -0.000065  -0.000450
   63  P  2 YZ   -0.000023  -0.000104   0.000264  -0.000085   0.000265
   64  P  2 XXX   0.000003   0.000042   0.000041   0.000005  -0.000012
   65  P  2 YYY  -0.000006   0.000001  -0.000036  -0.000078  -0.000048
   66  P  2 ZZZ  -0.000011  -0.000218  -0.000048  -0.000011  -0.000078
   67  P  2 XXY  -0.000001  -0.000179   0.000047   0.000025   0.000044
   68  P  2 XXZ   0.000009   0.000137   0.000036   0.000036   0.000079
   69  P  2 YYX   0.000001   0.000010   0.000009   0.000006   0.000005
   70  P  2 YYZ   0.000006   0.000156   0.000029  -0.000020   0.000026
   71  P  2 ZZX  -0.000004  -0.000066  -0.000064  -0.000012   0.000011
   72  P  2 ZZY   0.000009   0.000178   0.000001   0.000079   0.000021
   73  P  2 XYZ   0.000002   0.000041   0.000018   0.000008  -0.000035
   74  P  2 XX    0.000001   0.000027  -0.000001   0.000005  -0.000001
   75  P  2 YY    0.000001   0.000022   0.000002  -0.000003   0.000004
   76  P  2 ZZ   -0.000002  -0.000048  -0.000002  -0.000002  -0.000003
   77  P  2 XY   -0.000000   0.000002  -0.000003   0.000000   0.000004
   78  P  2 XZ   -0.000000  -0.000009  -0.000002  -0.000001   0.000004
   79  P  2 YZ    0.000001   0.000023   0.000002   0.000001  -0.000000
   80  O  3  S   -0.000002   0.975629   0.000026   0.000026   0.000028
   81  O  3  S   -0.000003  -0.001138   0.000038   0.000038   0.000042
[...]
            143  C  4 XXY     0.00124     0.07547
            144  C  4 XXZ     0.00083     0.07729
            145  C  4 YYX     0.00088     0.06831
            146  C  4 YYZ     0.00131     0.06639
            147  C  4 ZZX     0.00000     0.07058
            148  C  4 ZZY     0.00000     0.06771
            149  C  4 XYZ     0.00000     0.00302
            150  C  5  S      1.95557     1.55566
            151  C  5  S      0.82764     0.43089
            152  C  5  S      0.16156     0.27796
            153  C  5  S      0.33401     0.14803
            154  C  5  X      0.27092     0.21025
            155  C  5  Y      0.29450     0.22646
            156  C  5  Z      0.29451     0.22633
            157  C  5  X      0.51296     0.26512
            158  C  5  Y      0.53880     0.27983
            159  C  5  Z      0.54031     0.28057
            160  C  5  X      0.12991     0.18195
            161  C  5  Y      0.19184     0.20305
            162  C  5  Z      0.24500     0.21218
            163  C  5 XX      0.00519     0.08593
            164  C  5 YY      0.00527     0.08686
            165  C  5 ZZ      0.00423     0.08557
            166  C  5 XY      0.00417     0.00472
            167  C  5 XZ      0.00336     0.00443
            168  C  5 YZ      0.00000     0.00375
            169  C  5 XX      0.00853     0.09276
            170  C  5 YY      0.01304     0.09031
            171  C  5 ZZ      0.01161     0.08480
            172  C  5 XY      0.00974     0.02677
            173  C  5 XZ      0.00822     0.02471
            174  C  5 YZ      0.00000     0.01510
            175  C  5 XXX     0.00093     0.15911
            176  C  5 YYY     0.00075     0.17207
            177  C  5 ZZZ     0.00084     0.16734
            178  C  5 XXY     0.00117     0.07625
            179  C  5 XXZ     0.00093     0.07952
            180  C  5 YYX     0.00074     0.06858
            181  C  5 YYZ     0.00139     0.06686
            182  C  5 ZZX     0.00000     0.07082
            183  C  5 ZZY     0.00000     0.06671
            184  C  5 XYZ     0.00000     0.00278
            185  C  6  S      1.95557     1.55598
            186  C  6  S      0.82770     0.43279
            187  C  6  S      0.16159     0.27892
            188  C  6  S      0.33234     0.14879
            189  C  6  X      0.30049     0.22828
            190  C  6  Y      0.26053     0.20734
            191  C  6  Z      0.29891     0.22907
            192  C  6  X      0.54338     0.27929
            193  C  6  Y      0.50128     0.26667
            194  C  6  Z      0.54732     0.28036
            195  C  6  X      0.19847     0.20583
            196  C  6  Y      0.10855     0.17159
            197  C  6  Z      0.25672     0.21390
            198  C  6 XX      0.00555     0.08699
            199  C  6 YY      0.00605     0.09057
            200  C  6 ZZ      0.00350     0.08654
            201  C  6 XY      0.00439     0.00316
            202  C  6 XZ      0.00271     0.00464
            203  C  6 YZ      0.00000     0.00253
            204  C  6 XX      0.01068     0.08844
            205  C  6 YY      0.01486     0.10373
            206  C  6 ZZ      0.01020     0.08634
            207  C  6 XY      0.00871     0.02205
            208  C  6 XZ      0.00678     0.02080
            209  C  6 YZ      0.00000     0.01303
            210  C  6 XXX     0.00088     0.16270
            211  C  6 YYY     0.00096     0.16950
            212  C  6 ZZZ     0.00065     0.16548
            213  C  6 XXY     0.00134     0.07019
            214  C  6 XXZ     0.00093     0.07645
            215  C  6 YYX     0.00052     0.07798
            216  C  6 YYZ     0.00147     0.07339
            217  C  6 ZZX     0.00000     0.07479
            218  C  6 ZZY     0.00000     0.06472
            219  C  6 XYZ     0.00000     0.00269
            220  H  7  S      0.25209     0.19460
            221  H  7  S      0.45158     0.24390
            222  H  7  S      0.05841     0.11820
            223  H  7  X      0.00159     0.00207
            224  H  7  Y      0.00752     0.01113
            225  H  7  Z      0.00167     0.00212
            226  H  7  X      0.01036     0.02840
            227  H  7  Y      0.00508     0.04781
            228  H  7  Z      0.00900     0.02943
            229  H  7 XX      0.00030     0.06908
            230  H  7 YY      0.00065     0.11685
            231  H  7 ZZ      0.00100     0.06926
            232  H  7 XY      0.00009     0.00487
            233  H  7 XZ      0.00085     0.00017
            234  H  7 YZ      0.00000     0.00504
            235  H  8  S      0.24773     0.18986
            236  H  8  S      0.45024     0.24009
            237  H  8  S      0.04815     0.11501
            238  H  8  X      0.00162     0.00210
            239  H  8  Y      0.00192     0.00270
            240  H  8  Z      0.00723     0.01034
            241  H  8  X      0.00927     0.02893
            242  H  8  Y      0.00770     0.02922
            243  H  8  Z      0.00701     0.04734
            244  H  8 XX      0.00094     0.06809
            245  H  8 YY      0.00013     0.07093
            246  H  8 ZZ      0.00011     0.11110
            247  H  8 XY      0.00091     0.00026
            248  H  8 XZ      0.00078     0.00494
            249  H  8 YZ      0.00000     0.00549
            250  H  9  S      0.25200     0.18721
            251  H  9  S      0.45124     0.24193
            252  H  9  S      0.05782     0.11844
            253  H  9  X      0.00605     0.00802
            254  H  9  Y      0.00247     0.00353
            255  H  9  Z      0.00226     0.00319
            256  H  9  X      0.00993     0.04438
            257  H  9  Y      0.00697     0.03105
            258  H  9  Z      0.00750     0.03145
            259  H  9 XX      0.00044     0.10071
            260  H  9 YY      0.00090     0.07506
            261  H  9 ZZ      0.00065     0.07315
            262  H  9 XY      0.00067     0.00538
            263  H  9 XZ      0.00023     0.00526
            264  H  9 YZ      0.00000     0.00147
            265  H 10  S      0.25391     0.18716
            266  H 10  S      0.45550     0.24344
            267  H 10  S      0.06883     0.12063
            268  H 10  X      0.00543     0.00719
            269  H 10  Y      0.00237     0.00332
            270  H 10  Z      0.00288     0.00399
            271  H 10  X      0.01059     0.04350
            272  H 10  Y      0.00714     0.03112
            273  H 10  Z      0.00652     0.03411
            274  H 10 XX      0.00053     0.09691
            275  H 10 YY      0.00086     0.07400
            276  H 10 ZZ      0.00059     0.07864
            277  H 10 XY      0.00061     0.00471
            278  H 10 XZ      0.00028     0.00546
            279  H 10 YZ      0.00000     0.00204
            280  H 11  S      0.24705     0.18974
            281  H 11  S      0.44546     0.23885
            282  H 11  S      0.04320     0.11316
            283  H 11  X      0.00167     0.00232
            284  H 11  Y      0.00189     0.00264
            285  H 11  Z      0.00722     0.01030
            286  H 11  X      0.01010     0.02888
            287  H 11  Y      0.00764     0.02906
            288  H 11  Z      0.00557     0.04735
            289  H 11 XX      0.00087     0.06841
            290  H 11 YY      0.00015     0.07056
            291  H 11 ZZ      0.00011     0.11085
            292  H 11 XY      0.00095     0.00030
            293  H 11 XZ      0.00079     0.00501
            294  H 11 YZ      0.00000     0.00538
            295  H 12  S      0.25263     0.19486
            296  H 12  S      0.44900     0.24417
            297  H 12  S      0.05808     0.11818
            298  H 12  X      0.00157     0.00201
            299  H 12  Y      0.00749     0.01111
            300  H 12  Z      0.00173     0.00214
            301  H 12  X      0.01037     0.02832
            302  H 12  Y      0.00489     0.04812
            303  H 12  Z      0.00807     0.02972
            304  H 12 XX      0.00030     0.06911
            305  H 12 YY      0.00065     0.11691
            306  H 12 ZZ      0.00101     0.06942
            307  H 12 XY      0.00008     0.00478
            308  H 12 XZ      0.00082     0.00015
            309  H 12 YZ      0.00000     0.00513
            310  H 13  S      0.25386     0.18728
            311  H 13  S      0.45567     0.24287
            312  H 13  S      0.06878     0.12015
            313  H 13  X      0.00520     0.00664
            314  H 13  Y      0.00254     0.00384
            315  H 13  Z      0.00295     0.00412
            316  H 13  X      0.00435     0.04083
            317  H 13  Y      0.01322     0.03364
            318  H 13  Z      0.00676     0.03385
            319  H 13 XX      0.00052     0.09494
            320  H 13 YY      0.00070     0.07561
            321  H 13 ZZ      0.00071     0.07897
            322  H 13 XY      0.00059     0.00460
            323  H 13 XZ      0.00035     0.00533
            324  H 13 YZ      0.00000     0.00225
            325  H 14  S      0.25249     0.18782
            326  H 14  S      0.44890     0.24165
            327  H 14  S      0.05747     0.11792
            328  H 14  X      0.00579     0.00749
            329  H 14  Y      0.00264     0.00406
            330  H 14  Z      0.00237     0.00332
            331  H 14  X      0.00383     0.04238
            332  H 14  Y      0.01235     0.03347
            333  H 14  Z      0.00721     0.03125
            334  H 14 XX      0.00042     0.09898
            335  H 14 YY      0.00077     0.07678
            336  H 14 ZZ      0.00075     0.07361
            337  H 14 XY      0.00064     0.00531
            338  H 14 XZ      0.00028     0.00519
            339  H 14 YZ      0.00000     0.00165
            340  H 15  S      0.24711     0.18988
            341  H 15  S      0.44582     0.23911
            342  H 15  S      0.04369     0.11340
            343  H 15  X      0.00165     0.00216
            344  H 15  Y      0.00208     0.00325
            345  H 15  Z      0.00705     0.00993
            346  H 15  X      0.00779     0.02794
            347  H 15  Y      0.01141     0.03122
            348  H 15  Z      0.00417     0.04686
            349  H 15 XX      0.00085     0.06737
            350  H 15 YY      0.00021     0.07299
            351  H 15 ZZ      0.00012     0.10982
            352  H 15 XY      0.00075     0.00037
            353  H 15 XZ      0.00092     0.00505
            354  H 15 YZ      0.00000     0.00542

          ----- MULLIKEN ATOMIC OVERLAP POPULATIONS -----
          (OFF-DIAGONAL ELEMENTS NEED TO BE MULTIPLIED BY 2)

             1           2           3           4           5

    1    8.5839645
    2   -0.0112561  13.2863175
    3    0.0240973   0.2126954   8.5779034
    4   -0.0006024   0.3418837  -0.0171898   4.9932272
    5    0.0008656   0.3445269  -0.0157994  -0.0320672   5.0280670
    6    0.0006311   0.3447855  -0.0164592  -0.0321572  -0.0317236
    7    0.0003628  -0.0157112   0.0008400   0.3647924  -0.0025299
    8    0.0006552  -0.0145320   0.0009911   0.3601510  -0.0003635
    9    0.0003467  -0.0158531   0.0008263   0.3650184   0.0021707
   10    0.0009452  -0.0163188   0.0004639   0.0026475   0.3627105
   11    0.0003059  -0.0136707   0.0014009  -0.0008486   0.3570461
   12    0.0007554  -0.0183632   0.0009220  -0.0024357   0.3658805
   13    0.0008956  -0.0159791   0.0005378   0.0026487  -0.0033544
   14    0.0006881  -0.0181618   0.0009573  -0.0023633   0.0022794
   15    0.0003382  -0.0136179   0.0013553  -0.0008497  -0.0000725

             6           7           8           9          10

    6    5.0242910
    7    0.0022000   0.4781754
    8   -0.0004155  -0.0119386   0.4614645
    9   -0.0024691  -0.0163952  -0.0117902   0.4769328
   10   -0.0033504   0.0000243   0.0000103  -0.0000695   0.5002493
   11   -0.0001132  -0.0001676  -0.0000110   0.0000191  -0.0109271
   12    0.0023112   0.0005954  -0.0002466  -0.0000194  -0.0210441
   13    0.3624500  -0.0000698   0.0000100   0.0000244   0.0008856
   14    0.3657962  -0.0000174  -0.0002445   0.0005805  -0.0000141
   15    0.3572819   0.0000169  -0.0000107  -0.0001788  -0.0001647

            11          12          13          14          15

   11    0.4486695
   12   -0.0087999   0.4771847
   13   -0.0001528  -0.0000121   0.5000276
   14    0.0000210  -0.0000642  -0.0205184   0.4758934
   15   -0.0001129   0.0000202  -0.0111956  -0.0089315   0.4497528

          TOTAL MULLIKEN AND LOWDIN ATOMIC POPULATIONS
       ATOM         MULL.POP.    CHARGE          LOW.POP.     CHARGE
    1 LA            8.602993    2.397007         8.777527    2.222473
    2 P            14.376745    0.623255        14.318161    0.681839
    3 O             8.773542   -0.773542         8.407202   -0.407202
    4 C             6.341855   -0.341855         6.024330   -0.024330
    5 C             6.377636   -0.377636         6.034018   -0.034018
    6 C             6.373059   -0.373059         6.045537   -0.045537
    7 H             0.800177    0.199823         0.942905    0.057095
    8 H             0.783730    0.216270         0.926405    0.073595
    9 H             0.799143    0.200857         0.930214    0.069786
   10 H             0.816048    0.183952         0.936203    0.063797
   11 H             0.772659    0.227341         0.922804    0.077196
   12 H             0.796684    0.203316         0.944133    0.055867
   13 H             0.816197    0.183803         0.934921    0.065079
   14 H             0.795901    0.204099         0.930886    0.069114
   15 H             0.773631    0.226369         0.924754    0.075246

          MULLIKEN SPHERICAL HARMONIC POPULATIONS
       ATOM           S       P       D      F      G      H      I    TOTAL
    1 LA            2.01    6.10    0.50   0.00   0.00   0.00   0.00    8.60
    2 P             5.34    8.39    0.57   0.07   0.00   0.00   0.00   14.38
    3 O             3.78    4.95    0.04   0.00   0.00   0.00   0.00    8.77
    4 C             3.27    2.99    0.07   0.01   0.00   0.00   0.00    6.34
    5 C             3.28    3.02    0.07   0.01   0.00   0.00   0.00    6.38
    6 C             3.28    3.02    0.07   0.01   0.00   0.00   0.00    6.37
    7 H             0.76    0.04    0.00   0.00   0.00   0.00   0.00    0.80
    8 H             0.75    0.03    0.00   0.00   0.00   0.00   0.00    0.78
    9 H             0.76    0.04    0.00   0.00   0.00   0.00   0.00    0.80
   10 H             0.78    0.03    0.00   0.00   0.00   0.00   0.00    0.82
   11 H             0.74    0.03    0.00   0.00   0.00   0.00   0.00    0.77
   12 H             0.76    0.03    0.00   0.00   0.00   0.00   0.00    0.80
   13 H             0.78    0.04    0.00   0.00   0.00   0.00   0.00    0.82
   14 H             0.76    0.03    0.00   0.00   0.00   0.00   0.00    0.80
   15 H             0.74    0.03    0.00   0.00   0.00   0.00   0.00    0.77

          -------------------------------
          BOND ORDER AND VALENCE ANALYSIS     BOND ORDER THRESHOLD=0.050
          -------------------------------

                   BOND                       BOND                       BOND
  ATOM PAIR DIST  ORDER      ATOM PAIR DIST  ORDER      ATOM PAIR DIST  ORDER
    1   3  2.095  0.685        2   3  1.701  0.783        2   4  1.770  1.028
    2   5  1.774  1.014        2   6  1.773  1.015        4   7  1.090  0.874
    4   8  1.095  0.858        4   9  1.090  0.874        5  10  1.089  0.878
    5  11  1.096  0.856        5  12  1.090  0.875        6  13  1.089  0.878
    6  14  1.090  0.874        6  15  1.096  0.856

                       TOTAL       BONDED        FREE
      ATOM            VALENCE     VALENCE     VALENCE
    1 LA                0.675       0.754      -0.079
    2 P                 4.589       4.234       0.354
    3 O                 2.067       1.505       0.562
    4 C                 3.931       3.640       0.291
    5 C                 3.931       3.638       0.293
    6 C                 3.930       3.637       0.293
    7 H                 0.976       0.925       0.051
    8 H                 0.968       0.917       0.050
    9 H                 0.975       0.925       0.051
   10 H                 0.980       0.929       0.052
   11 H                 0.966       0.916       0.050
   12 H                 0.973       0.922       0.051
   13 H                 0.981       0.929       0.052
   14 H                 0.973       0.922       0.051
   15 H                 0.966       0.916       0.050

          ---------------------
          ELECTROSTATIC MOMENTS
          ---------------------

 POINT   1           X           Y           Z (BOHR)    CHARGE
                 0.423342    1.185523   -4.868924        3.00 (A.U.)
         DX          DY          DZ         /D/  (DEBYE)
     1.051609   -0.316886   -1.043135    1.514737
 ...... END OF PROPERTY EVALUATION ......
 CPU     0: STEP CPU TIME=     0.20 TOTAL CPU TIME=     3171.4 (   52.9 MIN)
 TOTAL WALL CLOCK TIME=     3218.8 SECONDS, CPU UTILIZATION IS  98.53%
  $VIB   
          IVIB=   0 IATOM=   0 ICOORD=   0 E=     -565.6057844754
 -1.559155907E-05-1.794287122E-05 4.138584062E-05 5.456940269E-05-5.099957918E-05
  5.505361896E-06 1.767633148E-05 4.571342241E-05-7.725253114E-05-1.293848249E-05
  5.056456059E-06 3.333181160E-07-2.263910577E-05 1.969897767E-05 1.131983545E-05
 -2.613205605E-05 5.642479129E-06 5.578896898E-06-3.826996101E-06-1.319036663E-07
  6.023406792E-06 2.738235747E-06-1.894985916E-06-6.914065340E-07-3.299604580E-06
  1.328953244E-06 8.630485937E-06-6.480693592E-06-6.496336532E-06-7.040457902E-06
 -9.018501019E-06-8.162801453E-06 6.976587037E-07 1.128735496E-05-2.482633284E-06
  1.878236936E-06 4.064169111E-06 1.072831674E-05-3.774814419E-06 6.570540329E-06
 -9.788628019E-06 3.478384800E-06 3.020964351E-06 9.731134027E-06 3.927783851E-06
  1.051608601E+00-3.168864590E-01-1.043135210E+00
 ......END OF GEOMETRY SEARCH......
 CPU     0: STEP CPU TIME=     0.01 TOTAL CPU TIME=     3171.4 (   52.9 MIN)
 TOTAL WALL CLOCK TIME=     3218.8 SECONDS, CPU UTILIZATION IS  98.53%
               2991967  WORDS OF DYNAMIC MEMORY USED
 EXECUTION OF GAMESS TERMINATED NORMALLY Sat Jun 11 02:13:43 2016
 DDI: 44487344 bytes (42.4 MB / 5 MWords) used by master data server.

 ----------------------------------------
 CPU timing information for all processes
 ========================================
 0: 3166.483 + 5.37 = 3171.520
 1: 3164.893 + 4.712 = 3169.606
 2: 3166.92 + 4.905 = 3170.997
 3: 3165.385 + 4.883 = 3170.269
 4: 3167.204 + 5.153 = 3172.357
 5: 3167.296 + 4.925 = 3172.221
 6: 3168.27 + 4.976 = 3173.03
 7: 3167.534 + 4.917 = 3172.451
 8: 3169.904 + 5.05 = 3174.909
 9: 3169.470 + 5.84 = 3174.554
 10: 3169.794 + 4.977 = 3174.771
 11: 3169.323 + 5.10 = 3174.333
 12: 3169.161 + 5.309 = 3174.470
 13: 3168.345 + 5.107 = 3173.452
 14: 3169.00 + 4.991 = 3173.991
 15: 3168.527 + 3.847 = 3172.374
 16: 0.06 + 0.94 = 0.101
 17: 0.15 + 0.78 = 0.94
 18: 0.15 + 0.78 = 0.94
 19: 0.13 + 0.86 = 0.100
 20: 0.08 + 0.93 = 0.102
 21: 0.09 + 0.87 = 0.97
 22: 0.15 + 0.75 = 0.91
 23: 0.18 + 0.79 = 0.98
 24: 0.19 + 0.71 = 0.91
 25: 0.14 + 0.81 = 0.96
 26: 0.18 + 0.70 = 0.89
 27: 0.08 + 0.75 = 0.84
 28: 0.17 + 0.68 = 0.86
 29: 0.11 + 0.76 = 0.88
 30: 0.08 + 0.81 = 0.90
 31: 0.14 + 0.80 = 0.95
 ----------------------------------------
unset echo
----- accounting info -----
Files used on the master node node226 were:
-rw-r--r-- 1 fzahari quantum     1962 Jun 11 01:20 /local/scratch/fzahari/196843.share/ang_var-1600.F05
-rw-r--r-- 1 fzahari quantum 17178000 Jun 11 02:13 /local/scratch/fzahari/196843.share/ang_var-1600.F10
-rw-r--r-- 1 fzahari quantum        8 Jun 11 01:20 /local/scratch/fzahari/196843.share/ang_var-1600.nodes.mpd
ls: No match.
ls: No match.
ls: No match.
Sat Jun 11 02:13:46 CDT 2016
50687.278u 82.577s 53:43.24 1575.1%	0+0k 104+437200io 0pf+0w
