----- GAMESS execution script 'rungms' -----
This job is running on host node215
under operating system Linux at Fri Jun 10 20:55:03 CDT 2016
PBS has assigned the following compute nodes to this run:
node215
Available scratch disk space (Kbyte units) at beginning of the job is
Filesystem           1K-blocks      Used Available Use% Mounted on
/dev/sda7            2670838024   1053204 2534114036   1% /local
GAMESS temporary binary files will be written to /local/scratch/fzahari/196839.share
GAMESS supplementary output files will be written to /work1/quantum/fzahari/scr
Copying input file ang_var-1560.inp to your run's scratch directory...
cp ang_var-1560.inp /local/scratch/fzahari/196839.share/ang_var-1560.F05
unset echo
setenv I_MPI_WAIT_MODE enable
setenv I_MPI_PIN disable
setenv I_MPI_DEBUG 0
setenv I_MPI_STATS 0
setenv I_MPI_FABRICS dapl
setenv I_MPI_DAT_LIBRARY libdat2.so
unset echo
MPI kickoff will run GAMESS on 16 cores in 1 nodes.
The binary to be executed is /home/mschmidt/gamess/gamess.132.x
MPI will run 16 compute processes and 16 data servers,
    placing 16 of each process type onto each node.
The scratch disk space on each node is /local/scratch/fzahari/196839.share, with free space
Filesystem           1K-blocks      Used Available Use% Mounted on
/dev/sda7            2670838024   1053228 2534114012   1% /local
setenv I_MPI_HYDRA_ENV all
setenv I_MPI_PERHOST 32
unset echo
mpiexec.hydra -f /local/scratch/fzahari/196839.share/ang_var-1560.processes.mpd -n 32 /home/mschmidt/gamess/gamess.132.x
          ******************************************************
          *         GAMESS VERSION =  5 DEC 2014 (R1)          *
          *             FROM IOWA STATE UNIVERSITY             *
          * M.W.SCHMIDT, K.K.BALDRIDGE, J.A.BOATZ, S.T.ELBERT, *
          *   M.S.GORDON, J.H.JENSEN, S.KOSEKI, N.MATSUNAGA,   *
          *          K.A.NGUYEN, S.J.SU, T.L.WINDUS,           *
          *       TOGETHER WITH M.DUPUIS, J.A.MONTGOMERY       *
          *         J.COMPUT.CHEM.  14, 1347-1363(1993)        *
          **************** 64 BIT INTEL VERSION ****************

  SINCE 1993, STUDENTS AND POSTDOCS WORKING AT IOWA STATE UNIVERSITY
  AND ALSO IN THEIR VARIOUS JOBS AFTER LEAVING ISU HAVE MADE IMPORTANT
  CONTRIBUTIONS TO THE CODE:
     IVANA ADAMOVIC, CHRISTINE AIKENS, YURI ALEXEEV, POOJA ARORA,
     ANDREY ASADCHEV, ROB BELL, PRADIPTA BANDYOPADHYAY, JONATHAN BENTZ,
     BRETT BODE, KURT BRORSEN, CALEB CARLIN, GALINA CHABAN, WEI CHEN,
     CHEOL HO CHOI, PAUL DAY, ALBERT DEFUSCO, NUWAN DESILVA, TIM DUDLEY,
     DMITRI FEDOROV, GRAHAM FLETCHER, MARK FREITAG, KURT GLAESEMANN,
     DAN KEMP, GRANT MERRILL, NORIYUKI MINEZAWA, JONATHAN MULLIN,
     TAKESHI NAGATA, SEAN NEDD, HEATHER NETZLOFF, BOSILJKA NJEGIC, RYAN OLSON,
     MIKE PAK, SPENCER PRUITT, LUKE ROSKOP, JIM SHOEMAKER, LYUDMILA SLIPCHENKO,
     TONY SMITH, SAROM SOK, JIE SONG, TETSUYA TAKETSUGU, SIMON WEBB,
     PENG XU, SOOHAENG YOO, FEDERICO ZAHARIEV

  ADDITIONAL CODE HAS BEEN PROVIDED BY COLLABORATORS IN OTHER GROUPS:
     IOWA STATE UNIVERSITY:
          JOE IVANIC, AARON WEST, LAIMUTIS BYTAUTAS, KLAUS RUEDENBERG
     UNIVERSITY OF TOKYO: KIMIHIKO HIRAO, TAKAHITO NAKAJIMA,
          TAKAO TSUNEDA, MUNEAKI KAMIYA, SUSUMU YANAGISAWA,
          KIYOSHI YAGI, MAHITO CHIBA, SEIKEN TOKURA, NAOAKI KAWAKAMI
     UNIVERSITY OF AARHUS: FRANK JENSEN
     UNIVERSITY OF IOWA: VISVALDAS KAIRYS, HUI LI
     NATIONAL INST. OF STANDARDS AND TECHNOLOGY: WALT STEVENS, DAVID GARMER
     UNIVERSITY OF PISA: BENEDETTA MENNUCCI, JACOPO TOMASI
     UNIVERSITY OF MEMPHIS: HENRY KURTZ, PRAKASHAN KORAMBATH
     UNIVERSITY OF ALBERTA: TOBY ZENG, MARIUSZ KLOBUKOWSKI
     UNIVERSITY OF NEW ENGLAND: MARK SPACKMAN
     MIE UNIVERSITY: HIROAKI UMEDA
     NAT. INST. OF ADVANCED INDUSTRIAL SCIENCE AND TECHNOLOGY: KAZUO KITAURA
     MICHIGAN STATE UNIVERSITY:
          KAROL KOWALSKI, MARTA WLOCH, JEFFREY GOUR, JESSE LUTZ,
          WEI LI, PIOTR PIECUCH
     UNIVERSITY OF SILESIA: MONIKA MUSIAL, STANISLAW KUCHARSKI
     FACULTES UNIVERSITAIRES NOTRE-DAME DE LA PAIX:
          OLIVIER QUINET, BENOIT CHAMPAGNE
     UNIVERSITY OF CALIFORNIA - SANTA BARBARA: BERNARD KIRTMAN
     INSTITUTE FOR MOLECULAR SCIENCE:
          KAZUYA ISHIMURA, MICHIO KATOUDA, AND SHIGERU NAGASE
     UNIVERSITY OF NOTRE DAME: ANNA POMOGAEVA, DAN CHIPMAN
     KYUSHU UNIVERSITY:
          HARUYUKI NAKANO,
          FENG LONG GU, JACEK KORCHOWIEC, MARCIN MAKOWSKI, AND YURIKO AOKI,
          HIROTOSHI MORI AND EISAKU MIYOSHI
     PENNSYLVANIA STATE UNIVERSITY:
          TZVETELIN IORDANOV, CHET SWALINA, JONATHAN SKONE,
          SHARON HAMMES-SCHIFFER
     WASEDA UNIVERSITY:
          MASATO KOBAYASHI, TOMOKO AKAMA, TSUGUKI TOUMA,
          TAKESHI YOSHIKAWA, YASUHIRO IKABATA, HIROMI NAKAI
     NANJING UNIVERSITY: SHUHUA LI
     UNIVERSITY OF NEBRASKA:
          PEIFENG SU, DEJUN SI, NANDUN THELLAMUREGE, YALI WANG, HUI LI
     UNIVERSITY OF ZURICH: ROBERTO PEVERATI, KIM BALDRIDGE
     N. COPERNICUS UNIVERSITY AND JACKSON STATE UNIVERSITY:
          MARIA BARYSZ
     UNIVERSITY OF COPENHAGEN: CASPER STEINMANN
     TOKYO INSTITUTE OF TECHNOLOGY: HIROYA NAKATA
     NAGOYA UNIVERSITY: YOSHIO NISHIMOTO, STEPHAN IRLE


 PARALLEL VERSION RUNNING ON       16 PROCESSORS IN        1 NODES.

 EXECUTION OF GAMESS BEGUN Fri Jun 10 20:55:04 2016

            ECHO OF THE FIRST FEW INPUT CARDS -
 INPUT CARD> $ZMAT DLC=.T. AUTO=.T. $END                                                    
 INPUT CARD> $ZMAT IFZMAT(1)=2, 1 , 3 , 2  FVALUE(1)= 156.0 $END                            
 INPUT CARD> $CONTRL COORD=UNIQUE NZVAR= 39 $END                                            
 INPUT CARD> $CONTRL ICHARG=+3 MULT=1                                                       
 INPUT CARD>         MPLEVL=2                                                               
 INPUT CARD>         SCFTYP=RHF                                                             
 INPUT CARD>         MAXIT=200 ISPHER=1 ICUT=11                                             
 INPUT CARD>         RUNTYP=OPTIMIZE                                                        
 INPUT CARD>         PP=READ                                                                
 INPUT CARD>         $END                                                                   
 INPUT CARD> $SCF    DIRSCF=.T. FDIFF=.F. $END                                              
 INPUT CARD> $TRANS  DIRTRF=.T. $END                                                        
 INPUT CARD> $SYSTEM MWORDS=300 MEMDDI=300 $END                                             
 INPUT CARD> $GUESS  GUESS=HUCKEL $END                                                      
 INPUT CARD> $BASIS  BASNAM(1)=METAL,                                                       
 INPUT CARD>                   LIGP,                                                        
 INPUT CARD>                   LIGO,                                                        
 INPUT CARD>                   LIGC,                                                        
 INPUT CARD>                   LIGC,                                                        
 INPUT CARD>                   LIGC,                                                        
 INPUT CARD>                   LIGH,                                                        
 INPUT CARD>                   LIGH,                                                        
 INPUT CARD>                   LIGH,                                                        
 INPUT CARD>                   LIGH,                                                        
 INPUT CARD>                   LIGH,                                                        
 INPUT CARD>                   LIGH,                                                        
 INPUT CARD>                   LIGH,                                                        
 INPUT CARD>                   LIGH,                                                        
 INPUT CARD>                   LIGH                                                         
 INPUT CARD> $END                                                                           
 INPUT CARD> $DATA                                                                          
 INPUT CARD>                                                                                
 INPUT CARD> C1                                                                             
 INPUT CARD> LA 57.0 0.31435 0.88028 -4.02887                                               
 INPUT CARD> P 15.0 0.196792143506 0.188632758808 -0.377761434414                           
 INPUT CARD> O 8.0 -0.10013 0.67027 -1.98246                                                
 INPUT CARD> C 6.0 -1.15580012863 0.804446959447 0.587094186834                             
 INPUT CARD> C 6.0 1.74342665171 0.919206361501 0.0847206578667                             
 INPUT CARD> C 6.0 0.264348641194 -1.58194543118 -0.392406086779                            
 INPUT CARD> H 1.0 -1.19754145064 1.89267316869 0.560045583431                              
 INPUT CARD> H 1.0 -0.969460741379 0.496820212869 1.62169977905                             
 INPUT CARD> H 1.0 -2.10063230397 0.365634092679 0.26862382196                              
 INPUT CARD> H 1.0 2.5571409266 0.549909948878 -0.538325435026                              
 INPUT CARD> H 1.0 1.93959995607 0.612051909654 1.1176564561                                
 INPUT CARD> H 1.0 1.69004345458 2.00696668472 0.0596362066863                              
 INPUT CARD> H 1.0 1.0839495955 -1.94119751116 -1.01361123231                               
 INPUT CARD> H 1.0 -0.686200397742 -2.01123812744 -0.706807468484                           
 INPUT CARD> H 1.0 0.455601069808 -1.89764099482 0.638879683777                             
 INPUT CARD> $END                                                                           
 INPUT CARD>!                                                                               
  300000000 WORDS OF MEMORY AVAILABLE

     BASIS OPTIONS
     -------------
     GBASIS=             IGAUSS=       0      POLAR=NONE    
     NDFUNC=       0     NFFUNC=       0     DIFFSP=       F
     NPFUNC=       0      DIFFS=       F     BASNAM=METAL   

 USING BASNAM FOR ATOM CUSTOMIZED BASIS CONSTRUCTION
     ----------------
     ATOM  BASIS NAME
     ----------------
       1   METAL   
       2   LIGP    
       3   LIGO    
       4   LIGC    
       5   LIGC    
       6   LIGC    
       7   LIGH    
       8   LIGH    
       9   LIGH    
      10   LIGH    
      11   LIGH    
      12   LIGH    
      13   LIGH    
      14   LIGH    
      15   LIGH    
 NOW LOCATING ALL   15 BASIS SETS IN YOUR INPUT FILE...
 FOUND BASIS SET  $METAL 
  SBKJC                        
                               
  $END                         
 FOUND BASIS SET  $LIGP  
  CCT                          
                               
  $END                         
 FOUND BASIS SET  $LIGO  
  CCT                          
                               
  $END                         
 FOUND BASIS SET  $LIGC  
  CCT                          
                               
  $END                         
 FOUND BASIS SET  $LIGH  
  CCT                          
                               
  $END                         
    5 UNIQUE ATOM CUSTOMIZED BASIS SETS WERE FOUND.

     SEARCHING FOR $MCP
     $MCP GROUP NOT FOUND


     RUN TITLE
     ---------
                                                                                 

 THE POINT GROUP OF THE MOLECULE IS C1      
 THE ORDER OF THE PRINCIPAL AXIS IS     0

 ATOM      ATOMIC                      COORDINATES (BOHR)
           CHARGE         X                   Y                   Z
 LA         57.0     0.5940353642        1.6634879925       -7.6134603402
 P          15.0     0.3718832278        0.3564642265       -0.7138655998
 O           8.0    -0.1892182632        1.2666266378       -3.7463061816
 C           6.0    -2.1841455397        1.5201843250        1.1094471421
 C           6.0     3.2945986514        1.7370481494        0.1600988289
 C           6.0     0.4995464971       -2.9894433925       -0.7415399799
 H           1.0    -2.2630252006        3.5766336731        1.0583326933
 H           1.0    -1.8320151571        0.9388540675        3.0645682168
 H           1.0    -3.9696194555        0.6909482469        0.5076254173
 H           1.0     4.8322956633        1.0391791213       -1.0172875644
 H           1.0     3.6653124428        1.1566103995        2.1120644504
 H           1.0     3.1937190365        3.7926171006        0.1126960896
 H           1.0     2.0483677200       -3.6683313841       -1.9154474871
 H           1.0    -1.2967307244       -3.8006889569       -1.3356724415
 H           1.0     0.8609611817       -3.5860215033        1.2073075415

          INTERNUCLEAR DISTANCES (ANGS.)
          ------------------------------

                1 LA         2 P          3 O          4 C          5 C     

   1 LA      0.0000000    3.7179012    2.0984975 *  4.8450199    4.3549286  
   2 P       3.7179012    0.0000000    1.7015272 *  1.7719140 *  1.7719215 *
   3 O       2.0984975 *  1.7015272 *  0.0000000    2.7811961 *  2.7809902 *
   4 C       4.8450199    1.7719140 *  2.7811961 *  0.0000000    2.9446672 *
   5 C       4.3549286    1.7719215 *  2.7809902 *  2.9446672 *  0.0000000  
   6 C       4.3919158    1.7719271 *  2.7809334 *  2.9446752 *  2.9446701 *
   7 H       4.9364868    2.3931991 *  3.0270309    1.0893623 *  3.1341450  
   8 H       5.8072498    2.3351596 *  3.7115749    1.0953380 *  3.1465017  
   9 H       4.9563548    2.3931783 *  3.0269111    1.0893521 *  3.8880653  
  10 H       4.1621097    2.3932297 *  3.0267309    3.8880959    1.0893563 *
  11 H       5.4037134    2.3351526 *  3.7114161    3.1464287    1.0953466 *
  12 H       4.4584569    2.3932101 *  3.0268194    3.1341811    1.0893583 *
  13 H       4.2005719    2.3932259 *  3.0266277    3.8880972    3.1341910  
  14 H       4.5164231    2.3931943 *  3.0267563    3.1341327    3.8880727  
  15 H       5.4336621    2.3351829 *  3.7113913    3.1465179    3.1464609  

                6 C          7 H          8 H          9 H         10 H     

   1 LA      4.3919158    4.9364868    5.8072498    4.9563548    4.1621097  
   2 P       1.7719271 *  2.3931991 *  2.3351596 *  2.3931783 *  2.3932297 *
   3 O       2.7809334 *  3.0270309    3.7115749    3.0269111    3.0267309  
   4 C       2.9446752 *  1.0893623 *  1.0953380 *  1.0893521 *  3.8880959  
   5 C       2.9446701 *  3.1341450    3.1465017    3.8880653    1.0893563 *
   6 C       0.0000000    3.8880922    3.1464543    3.1341923    3.1341660  
   7 H       3.8880922    0.0000000    1.7684841 *  1.7978732 *  4.1360696  
   8 H       3.1464543    1.7684841 *  0.0000000    1.7684947 *  4.1358732  
   9 H       3.1341923    1.7978732 *  1.7684947 *  0.0000000    4.7307479  
  10 H       3.1341660    4.1360696    4.1358732    4.7307479    0.0000000  
  11 H       3.1464870    3.4340322    2.9546526 *  4.1358258    1.7684724 *
  12 H       3.8880893    2.9328517 *  3.4341735    4.1360454    1.7978961 *
  13 H       1.0893593 *  4.7307675    4.1358540    4.1360803    2.9328835 *
  14 H       1.0893502 *  4.1360500    3.4340267    2.9328494 *  4.1360765  
  15 H       1.0953500 *  4.1358888    2.9546880 *  3.4342150    3.4340628  

               11 H         12 H         13 H         14 H         15 H     

   1 LA      5.4037134    4.4584569    4.2005719    4.5164231    5.4336621  
   2 P       2.3351526 *  2.3932101 *  2.3932259 *  2.3931943 *  2.3351829 *
   3 O       3.7114161    3.0268194    3.0266277    3.0267563    3.7113913  
   4 C       3.1464287    3.1341811    3.8880972    3.1341327    3.1465179  
   5 C       1.0953466 *  1.0893583 *  3.1341910    3.8880727    3.1464609  
   6 C       3.1464870    3.8880893    1.0893593 *  1.0893502 *  1.0953500 *
   7 H       3.4340322    2.9328517 *  4.7307675    4.1360500    4.1358888  
   8 H       2.9546526 *  3.4341735    4.1358540    3.4340267    2.9546880 *
   9 H       4.1358258    4.1360454    4.1360803    2.9328494 *  3.4342150  
  10 H       1.7684724 *  1.7978961 *  2.9328835 *  4.1360765    3.4340628  
  11 H       0.0000000    1.7684662 *  3.4341698    4.1358369    2.9546638 *
  12 H       1.7684662 *  0.0000000    4.1360864    4.7307442    4.1358593  
  13 H       3.4341698    4.1360864    0.0000000    1.7979058 *  1.7684584 *
  14 H       4.1358369    4.7307442    1.7979058 *  0.0000000    1.7684708 *
  15 H       2.9546638 *  4.1358593    1.7684584 *  1.7684708 *  0.0000000  

  * ... LESS THAN  3.000


     ATOMIC BASIS SET
     ----------------
 THE CONTRACTED PRIMITIVE FUNCTIONS HAVE BEEN UNNORMALIZED
 THE CONTRACTED BASIS FUNCTIONS ARE NOW NORMALIZED TO UNITY

  SHELL TYPE  PRIMITIVE        EXPONENT          CONTRACTION COEFFICIENT(S)

 LA        

      1   L       1             9.1730000   -0.054833023521   -0.009797991527
      1   L       2             3.1200000    0.676604290237    0.231261800020
      1   L       3             2.1040000   -1.034429443730   -0.601214480110
      1   L       4             1.3200000   -0.518907222591    0.195188831214
      1   L       5             0.4960000    1.631603699894    1.076136069429

      2   D       6             1.2380000   -0.053797021791
      2   D       7             0.6061000    0.380144153981
      2   D       8             0.2518000    0.720349291785

      3   D       9             0.0978700    1.000000000000

      4   L      10             0.6182000   -0.107095028128   -0.051868986063
      4   L      11             0.0454600    1.033448271434    1.008107729120

      5   L      12             0.0177500    1.000000000000    1.000000000000

      6   L      13             0.2004000    1.000000000000    1.000000000000

      7   D      14             0.0353600    1.000000000000

 P         

      8   S      15        312400.0000000    0.000057689641
      8   S      16         46800.0000000    0.000448246591
      8   S      17         10650.0000000    0.002349131061
      8   S      18          3018.0000000    0.009781571802
      8   S      19           986.8000000    0.034142936511
      8   S      20           357.4000000    0.100192955985
      8   S      21           139.6000000    0.234346168617
      8   S      22            57.6300000    0.382391849918
      8   S      23            24.6000000    0.318052941833
      8   S      24            10.1200000    0.070770999093
      8   S      25             4.2830000   -0.001817789630
      8   S      26             1.8050000    0.002161561737
      8   S      27             0.2782000    0.000432249354

      9   S      28        312400.0000000   -0.000016380204
      9   S      29         46800.0000000   -0.000127233535
      9   S      30         10650.0000000   -0.000668625166
      9   S      31          3018.0000000   -0.002795303744
      9   S      32           986.8000000   -0.009928227435
      9   S      33           357.4000000   -0.030244566456
      9   S      34           139.6000000   -0.077884705328
      9   S      35            57.6300000   -0.156724571545
      9   S      36            24.6000000   -0.198042753651
      9   S      37            10.1200000    0.037971251521
      9   S      38             4.2830000    0.552751544147
      9   S      39             1.8050000    0.542611452452
      9   S      40             0.2782000   -0.009675942874

     10   S      41        312400.0000000    0.000006865735
     10   S      42         46800.0000000    0.000053281983
     10   S      43         10650.0000000    0.000280421002
     10   S      44          3018.0000000    0.001170789768
     10   S      45           986.8000000    0.004173591138
     10   S      46           357.4000000    0.012720496749
     10   S      47           139.6000000    0.033152766352
     10   S      48            57.6300000    0.067671246836
     10   S      49            24.6000000    0.089831018862
     10   S      50            10.1200000   -0.020305232360
     10   S      51             4.2830000   -0.313280408979
     10   S      52             1.8050000   -0.563687905527
     10   S      53             0.2782000    1.117494073734

     11   S      54             0.6158000    1.000000000000

     12   S      55             0.1055000    1.000000000000

     13   P      56           504.9000000    0.002433660431
     13   P      57           119.4000000    0.019305559477
     13   P      58            37.9600000    0.088473106893
     13   P      59            13.9500000    0.254701981099
     13   P      60             5.4570000    0.440199242653
     13   P      61             2.1770000    0.383632006272
     13   P      62             0.2877000   -0.003946337074

     14   P      63           504.9000000   -0.000954298933
     14   P      64           119.4000000   -0.007664025747
     14   P      65            37.9600000   -0.035465925259
     14   P      66            13.9500000   -0.106164716437
     14   P      67             5.4570000   -0.187210586037
     14   P      68             2.1770000   -0.181495819791
     14   P      69             0.2877000    0.991672644618

     15   P      70             0.8010000    1.000000000000

     16   P      71             0.0971400    1.000000000000

     17   D      72             0.6480000    1.000000000000

     18   D      73             0.2180000    1.000000000000

     19   F      74             0.4520000    1.000000000000

     20   D      75             3.1200000    1.000000000000

 O         

     21   S      76         15330.0000000    0.000520198307
     21   S      77          2299.0000000    0.004023344781
     21   S      78           522.4000000    0.020729083329
     21   S      79           147.3000000    0.081082327080
     21   S      80            47.5500000    0.236226352118
     21   S      81            16.7600000    0.443518209420
     21   S      82             6.2070000    0.358670588689
     21   S      83             0.6882000   -0.008349797237

     22   S      84         15330.0000000   -0.000197236012
     22   S      85          2299.0000000   -0.001535010700
     22   S      86           522.4000000   -0.007951183914
     22   S      87           147.3000000   -0.032113452892
     22   S      88            47.5500000   -0.100269643049
     22   S      89            16.7600000   -0.234047111838
     22   S      90             6.2070000   -0.301410927756
     22   S      91             0.6882000    1.034919649508

     23   S      92             1.7520000    1.000000000000

     24   S      93             0.2384000    1.000000000000

     25   P      94            34.4600000    0.041163489568
     25   P      95             7.7490000    0.257762835858
     25   P      96             2.2800000    0.802419274427

     26   P      97             0.7156000    1.000000000000

     27   P      98             0.2140000    1.000000000000

     28   D      99             2.3140000    1.000000000000

     29   D     100             0.6450000    1.000000000000

     30   F     101             1.4280000    1.000000000000

 C         

     31   S     102          8236.0000000    0.000542430189
     31   S     103          1235.0000000    0.004196427901
     31   S     104           280.8000000    0.021540914108
     31   S     105            79.2700000    0.083614949614
     31   S     106            25.5900000    0.239871618922
     31   S     107             8.9970000    0.443751820060
     31   S     108             3.3190000    0.353579696469
     31   S     109             0.3643000   -0.009176366076

     32   S     110          8236.0000000   -0.000196392234
     32   S     111          1235.0000000   -0.001525950274
     32   S     112           280.8000000   -0.007890449028
     32   S     113            79.2700000   -0.031514870532
     32   S     114            25.5900000   -0.096910008320
     32   S     115             8.9970000   -0.220541526288
     32   S     116             3.3190000   -0.296069112937
     32   S     117             0.3643000    1.040503432950

     33   S     118             0.9059000    1.000000000000

     34   S     119             0.1285000    1.000000000000

     35   P     120            18.7100000    0.039426387165
     35   P     121             4.1330000    0.244088984924
     35   P     122             1.2000000    0.815492008943

     36   P     123             0.3827000    1.000000000000

     37   P     124             0.1209000    1.000000000000

     38   D     125             1.0970000    1.000000000000

     39   D     126             0.3180000    1.000000000000

     40   F     127             0.7610000    1.000000000000

 C         

     41   S     128          8236.0000000    0.000542430189
     41   S     129          1235.0000000    0.004196427901
     41   S     130           280.8000000    0.021540914108
     41   S     131            79.2700000    0.083614949614
     41   S     132            25.5900000    0.239871618922
     41   S     133             8.9970000    0.443751820060
     41   S     134             3.3190000    0.353579696469
     41   S     135             0.3643000   -0.009176366076

     42   S     136          8236.0000000   -0.000196392234
     42   S     137          1235.0000000   -0.001525950274
     42   S     138           280.8000000   -0.007890449028
     42   S     139            79.2700000   -0.031514870532
     42   S     140            25.5900000   -0.096910008320
     42   S     141             8.9970000   -0.220541526288
     42   S     142             3.3190000   -0.296069112937
     42   S     143             0.3643000    1.040503432950

     43   S     144             0.9059000    1.000000000000

     44   S     145             0.1285000    1.000000000000

     45   P     146            18.7100000    0.039426387165
     45   P     147             4.1330000    0.244088984924
     45   P     148             1.2000000    0.815492008943

     46   P     149             0.3827000    1.000000000000

     47   P     150             0.1209000    1.000000000000

     48   D     151             1.0970000    1.000000000000

     49   D     152             0.3180000    1.000000000000

     50   F     153             0.7610000    1.000000000000

 C         

     51   S     154          8236.0000000    0.000542430189
     51   S     155          1235.0000000    0.004196427901
     51   S     156           280.8000000    0.021540914108
     51   S     157            79.2700000    0.083614949614
     51   S     158            25.5900000    0.239871618922
     51   S     159             8.9970000    0.443751820060
     51   S     160             3.3190000    0.353579696469
     51   S     161             0.3643000   -0.009176366076

     52   S     162          8236.0000000   -0.000196392234
     52   S     163          1235.0000000   -0.001525950274
     52   S     164           280.8000000   -0.007890449028
     52   S     165            79.2700000   -0.031514870532
     52   S     166            25.5900000   -0.096910008320
     52   S     167             8.9970000   -0.220541526288
     52   S     168             3.3190000   -0.296069112937
     52   S     169             0.3643000    1.040503432950

     53   S     170             0.9059000    1.000000000000

     54   S     171             0.1285000    1.000000000000

     55   P     172            18.7100000    0.039426387165
     55   P     173             4.1330000    0.244088984924
     55   P     174             1.2000000    0.815492008943

     56   P     175             0.3827000    1.000000000000

     57   P     176             0.1209000    1.000000000000

     58   D     177             1.0970000    1.000000000000

     59   D     178             0.3180000    1.000000000000

     60   F     179             0.7610000    1.000000000000

 H         

     61   S     180            33.8700000    0.025494863235
     61   S     181             5.0950000    0.190362765893
     61   S     182             1.1590000    0.852162022245

     62   S     183             0.3258000    1.000000000000

     63   S     184             0.1027000    1.000000000000

     64   P     185             1.4070000    1.000000000000

     65   P     186             0.3880000    1.000000000000

     66   D     187             1.0570000    1.000000000000

 H         

     67   S     188            33.8700000    0.025494863235
     67   S     189             5.0950000    0.190362765893
     67   S     190             1.1590000    0.852162022245

     68   S     191             0.3258000    1.000000000000

     69   S     192             0.1027000    1.000000000000

     70   P     193             1.4070000    1.000000000000

     71   P     194             0.3880000    1.000000000000

     72   D     195             1.0570000    1.000000000000

 H         

     73   S     196            33.8700000    0.025494863235
     73   S     197             5.0950000    0.190362765893
     73   S     198             1.1590000    0.852162022245

     74   S     199             0.3258000    1.000000000000

     75   S     200             0.1027000    1.000000000000

     76   P     201             1.4070000    1.000000000000

     77   P     202             0.3880000    1.000000000000

     78   D     203             1.0570000    1.000000000000

 H         

     79   S     204            33.8700000    0.025494863235
     79   S     205             5.0950000    0.190362765893
     79   S     206             1.1590000    0.852162022245

     80   S     207             0.3258000    1.000000000000

     81   S     208             0.1027000    1.000000000000

     82   P     209             1.4070000    1.000000000000

     83   P     210             0.3880000    1.000000000000

     84   D     211             1.0570000    1.000000000000

 H         

     85   S     212            33.8700000    0.025494863235
     85   S     213             5.0950000    0.190362765893
     85   S     214             1.1590000    0.852162022245

     86   S     215             0.3258000    1.000000000000

     87   S     216             0.1027000    1.000000000000

     88   P     217             1.4070000    1.000000000000

     89   P     218             0.3880000    1.000000000000

     90   D     219             1.0570000    1.000000000000

 H         

     91   S     220            33.8700000    0.025494863235
     91   S     221             5.0950000    0.190362765893
     91   S     222             1.1590000    0.852162022245

     92   S     223             0.3258000    1.000000000000

     93   S     224             0.1027000    1.000000000000

     94   P     225             1.4070000    1.000000000000

     95   P     226             0.3880000    1.000000000000

     96   D     227             1.0570000    1.000000000000

 H         

     97   S     228            33.8700000    0.025494863235
     97   S     229             5.0950000    0.190362765893
     97   S     230             1.1590000    0.852162022245

     98   S     231             0.3258000    1.000000000000

     99   S     232             0.1027000    1.000000000000

    100   P     233             1.4070000    1.000000000000

    101   P     234             0.3880000    1.000000000000

    102   D     235             1.0570000    1.000000000000

 H         

    103   S     236            33.8700000    0.025494863235
    103   S     237             5.0950000    0.190362765893
    103   S     238             1.1590000    0.852162022245

    104   S     239             0.3258000    1.000000000000

    105   S     240             0.1027000    1.000000000000

    106   P     241             1.4070000    1.000000000000

    107   P     242             0.3880000    1.000000000000

    108   D     243             1.0570000    1.000000000000

 H         

    109   S     244            33.8700000    0.025494863235
    109   S     245             5.0950000    0.190362765893
    109   S     246             1.1590000    0.852162022245

    110   S     247             0.3258000    1.000000000000

    111   S     248             0.1027000    1.000000000000

    112   P     249             1.4070000    1.000000000000

    113   P     250             0.3880000    1.000000000000

    114   D     251             1.0570000    1.000000000000

 TOTAL NUMBER OF BASIS SET SHELLS             =  114
 NUMBER OF CARTESIAN GAUSSIAN BASIS FUNCTIONS =  354
 NOTE: THIS RUN WILL RESTRICT THE MO VARIATION SPACE TO SPHERICAL HARMONICS.
 THE NUMBER OF ORBITALS KEPT IN THE VARIATIONAL SPACE WILL BE PRINTED LATER.
 NUMBER OF ELECTRONS                          =  104
 CHARGE OF MOLECULE                           =    3
 SPIN MULTIPLICITY                            =    1
 NUMBER OF OCCUPIED ORBITALS (ALPHA)          =   52
 NUMBER OF OCCUPIED ORBITALS (BETA )          =   52
 TOTAL NUMBER OF ATOMS                        =   15
 THE NUCLEAR REPULSION ENERGY IS      669.6399529551
 NOTE THIS RUN IS USING CORE POTENTIALS, AND THE NUMBER OF ELECTRONS,
 OCCUPIED ORBITALS, AND NUCLEAR REPULSION ENERGY WILL BE ADJUSTED BELOW
 AFTER REMOVAL OF THE CORE CHARGES.

     $CONTRL OPTIONS
     ---------------
 SCFTYP=RHF          RUNTYP=OPTIMIZE     EXETYP=RUN     
 MPLEVL=       2     CITYP =NONE         CCTYP =NONE         VBTYP =NONE    
 DFTTYP=NONE         TDDFT =NONE    
 MULT  =       1     ICHARG=       3     NZVAR =      39     COORD =UNIQUE  
 PP    =READ         RELWFN=NONE         LOCAL =NONE         NUMGRD=       F
 ISPHER=       1     NOSYM =       0     MAXIT =     200     UNITS =ANGS    
 PLTORB=       F     MOLPLT=       F     AIMPAC=       F     FRIEND=        
 NPRINT=       7     IREST =       0     GEOM  =INPUT   
 NORMF =       0     NORMP =       0     ITOL  =      20     ICUT  =      11
 INTTYP=BEST         GRDTYP=BEST         QMTTOL= 1.0E-06

     $SYSTEM OPTIONS
     ---------------
  REPLICATED MEMORY=   300000000 WORDS (ON EVERY NODE).
 DISTRIBUTED MEMDDI=         300 MILLION WORDS IN AGGREGATE,
 MEMDDI DISTRIBUTED OVER  16 PROCESSORS IS    18750000 WORDS/PROCESSOR.
 TOTAL MEMORY REQUESTED ON EACH PROCESSOR=   318750000 WORDS.
 TIMLIM=      525600.00 MINUTES, OR     365.0 DAYS.
 PARALL= T  BALTYP=  DLB     KDIAG=    0  COREFL= F
 MXSEQ2=     300 MXSEQ3=     150  mem10=         0

          --------------
          ECP POTENTIALS
          --------------

 PARAMETERS FOR "LA-ECP  " ON ATOM    1 WITH ZCORE  46 AND LMAX  4 ARE
 FOR L= 4      COEFF    N           ZETA
    1       -2.85665    1        1.42345
 FOR L= 0      COEFF    N           ZETA
    1        8.85347    0       22.29739
    2      -68.41778    2        1.64320
    3      110.12463    2        1.85122
 FOR L= 1      COEFF    N           ZETA
    1        2.98675    0        1.77635
    2      -35.51815    2        3.98941
    3       53.65423    2        2.47524
 FOR L= 2      COEFF    N           ZETA
    1        1.67298    0        1.52169
    2       18.46625    2        1.52182
 FOR L= 3      COEFF    N           ZETA
    1       -4.64430    1        2.67762
    2      -14.43101    1       10.06608

 THE ECP RUN REMOVES   46 CORE ELECTRONS, AND THE SAME NUMBER OF PROTONS.
 NUMBER OF ELECTRONS KEPT IN THE CALCULATION IS =   58
 NUMBER OF OCCUPIED ORBITALS (ALPHA) KEPT IS    =   29
 NUMBER OF OCCUPIED ORBITALS (BETA ) KEPT IS    =   29
 THE ADJUSTED NUCLEAR REPULSION ENERGY=      336.1834171706
          ECP ANGULAR INTS.........     0.03 SECONDS

          ----------------
          PROPERTIES INPUT
          ----------------

     MOMENTS            FIELD           POTENTIAL          DENSITY
 IEMOM =       1   IEFLD =       0   IEPOT =       0   IEDEN =       0
 WHERE =COMASS     WHERE =NUCLEI     WHERE =NUCLEI     WHERE =NUCLEI  
 OUTPUT=BOTH       OUTPUT=BOTH       OUTPUT=BOTH       OUTPUT=BOTH    
 IEMINT=       0   IEFINT=       0                     IEDINT=       0
                                                       MORB  =       0
          EXTRAPOLATION IN EFFECT
          SOSCF IN EFFECT
 ORBITAL PRINTING OPTION: NPREO=     1   354     2     1

     -------------------------------
     INTEGRAL TRANSFORMATION OPTIONS
     -------------------------------
     NWORD  =            0
     CUTOFF = 1.0E-09     MPTRAN =       0
     DIRTRF =       T     AOINTS =DUP     

          ----------------------
          INTEGRAL INPUT OPTIONS
          ----------------------
 NOPK  =       1 NORDER=       0 SCHWRZ=       T

          -----------------------
          MP2 CONTROL INFORMATION
          -----------------------
          NACORE =       13  NBCORE =       13
          LMOMP2 =        F  AOINTS = DUP     
          METHOD =        2  NWORD  =               0
          MP2PRP =        F  OSPT   = NONE    
          CUTOFF = 1.00E-09  CPHFBS = BASISAO 
          CODE   = DDI     

          NUMBER OF CORE -A-  ORBITALS =    13
          NUMBER OF CORE -B-  ORBITALS =    13
          NUMBER OF OCC. -A-  ORBITALS =    29
          NUMBER OF OCC. -B-  ORBITALS =    29
          NUMBER OF MOLECULAR ORBITALS =   354
          NUMBER OF   BASIS  FUNCTIONS =   354

 
 
 -----------------------------------------------
  STATISTICS ON AUTOMATIC COORDINATE GENERATION 
 -----------------------------------------------
  NUMBER OF USER SPECIFIED BONDS                              0
  NUMBER OF BONDS                                            14
  NUMBER OF ANGLES                                           25
  NUMBER OF TORSIONS                                         30
  NUMBER OF EXTRA COORD.                                      0
  NUMBER OF EXTRA COORD. FOR CONSTRAINTS                      0
  NUMBER OF CONSTRAINED COORD.                                1
 
  TOTAL NUMBER OF PRIMITIVES                                 69
 -----------------------------------------------

   --- ENCODED Z MATRIX ---
 COORD  TYPE   I   J   K   L   M   N
    1      2    1   3   2
    2      1    1   3
    3      1    2   4
    4      1    2   3
    5      1    2   6
    6      1    2   5
    7      1    4   8
    8      1    4   7
    9      1    4   9
   10      1    5  12
   11      1    5  11
   12      1    5  10
   13      1    6  15
   14      1    6  14
   15      1    6  13
   16      2    2   5  11
   17      2    2   4   8
   18      2    2   6  13
   19      2    2   6  14
   20      2    2   4   9
   21      2    2   5  12
   22      2    2   5  10
   23      2    2   4   7
   24      2    2   6  15
   25      2    3   2   4
   26      2    3   2   5
   27      2    3   2   6
   28      2    4   2   6
   29      2    4   2   5
   30      2    5   2   6
   31      2    7   4   9
   32      2    7   4   8
   33      2    8   4   9
   34      2   10   5  11
   35      2   10   5  12
   36      2   11   5  12
   37      2   13   6  14
   38      2   13   6  15
   39      2   14   6  15
   40      3    1   3   2   5
   41      3    1   3   2   4
   42      3    1   3   2   6
   43      3    3   2   4   8
   44      3    3   2   6  15
   45      3    3   2   6  14
   46      3    3   2   4   7
   47      3    3   2   5  10
   48      3    3   2   6  13
   49      3    3   2   5  11
   50      3    3   2   5  12
   51      3    3   2   4   9
   52      3    4   2   6  15
   53      3    4   2   6  14
   54      3    4   2   5  10
   55      3    4   2   6  13
   56      3    4   2   5  12
   57      3    4   2   5  11
   58      3    5   2   6  15
   59      3    5   2   6  14
   60      3    5   2   4   7
   61      3    5   2   6  13
   62      3    5   2   4   9
   63      3    5   2   4   8
   64      3    6   2   4   7
   65      3    6   2   5  10
   66      3    6   2   5  11
   67      3    6   2   5  12
   68      3    6   2   4   9
   69      3    6   2   4   8

          INDEP./SYM. INTERNAL COORDINATES
          --------------------------------
 CRD  1=   1.0000 (  1)
 CRD  2=   0.1033 ( 16) -0.1302 ( 20) -0.1048 ( 22)  0.1265 ( 23) -0.1113 ( 24)
          -0.2953 ( 26)  0.3182 ( 27) -0.4179 ( 28)  0.4503 ( 29) -0.1829 ( 40)
           0.1774 ( 41) -0.1570 ( 42)  0.1139 ( 46)  0.1097 ( 51) -0.1374 ( 53)
          -0.1238 ( 56)  0.1622 ( 58)  0.1002 ( 59)  0.1588 ( 61)  0.1511 ( 65)
           0.1641 ( 66) -0.1001 ( 69)
 CRD  3=  -0.3163 (  3)  0.1489 (  5)  0.1850 (  6)  0.2287 ( 18) -0.1437 ( 19)
          -0.1214 ( 21)  0.2242 ( 22) -0.2466 ( 28) -0.1986 ( 29)  0.4211 ( 30)
           0.2343 ( 40) -0.2524 ( 42)  0.1685 ( 44) -0.1564 ( 49) -0.1353 ( 59)
          -0.1001 ( 60) -0.1273 ( 61) -0.1019 ( 63)  0.1018 ( 64)  0.1351 ( 65)
           0.1430 ( 67)  0.1100 ( 68)  0.1001 ( 69)
 CRD  4=   0.3548 (  5) -0.3293 (  6)  0.1908 ( 19)  0.1551 ( 20) -0.1977 ( 21)
          -0.1751 ( 23) -0.2218 ( 26)  0.2390 ( 27)  0.1025 ( 28) -0.1105 ( 29)
           0.1064 ( 35) -0.1147 ( 37) -0.2621 ( 41)  0.2635 ( 43) -0.1115 ( 44)
          -0.1198 ( 45)  0.2006 ( 46) -0.1406 ( 49) -0.1403 ( 50)  0.1966 ( 51)
           0.1242 ( 54)  0.1135 ( 55) -0.1350 ( 60) -0.1391 ( 62) -0.1308 ( 64)
          -0.1349 ( 68)
 CRD  5=  -0.3803 (  3) -0.4093 (  5) -0.4115 (  6) -0.2720 ( 16) -0.2712 ( 17)
          -0.2720 ( 24)  0.1149 ( 32)  0.1149 ( 33)  0.1231 ( 34)  0.1220 ( 36)
           0.1226 ( 38)  0.1214 ( 39) -0.1214 ( 54)  0.1220 ( 55) -0.1123 ( 59)
           0.1198 ( 62) -0.1205 ( 64)  0.1124 ( 67)
 CRD  6=   0.2076 (  2)  0.3591 (  3)  0.3453 (  4)  0.1772 (  5)  0.1631 (  6)
          -0.2064 ( 16) -0.2207 ( 17)  0.1793 ( 18)  0.1613 ( 19)  0.2532 ( 20)
           0.1555 ( 21)  0.1722 ( 22)  0.2545 ( 23) -0.2074 ( 24)  0.1354 ( 25)
          -0.2019 ( 31) -0.1266 ( 35) -0.1320 ( 37)  0.1113 ( 52) -0.1487 ( 54)
           0.1510 ( 55) -0.1103 ( 57)  0.1232 ( 62) -0.1273 ( 64)
 CRD  7=   0.1261 (  2)  0.3456 (  3)  0.1674 (  4) -0.2178 (  5) -0.2615 (  6)
          -0.1010 ( 10) -0.1062 ( 14)  0.2765 ( 17)  0.1994 ( 18) -0.4373 ( 19)
          -0.4258 ( 21)  0.1652 ( 22) -0.1527 ( 32) -0.1370 ( 33)  0.1251 ( 35)
           0.1577 ( 36)  0.1132 ( 37)  0.1510 ( 39)
 CRD  8=   0.2828 (  5) -0.2624 (  6)  0.1069 (  8) -0.1059 (  9) -0.2939 ( 16)
           0.1504 ( 18) -0.1929 ( 19) -0.4035 ( 20)  0.2360 ( 21) -0.1967 ( 22)
           0.4066 ( 23)  0.3167 ( 24) -0.1322 ( 32)  0.1508 ( 33)  0.1963 ( 34)
          -0.1900 ( 38)
 CRD  9=  -0.1851 (  2) -0.2680 (  4) -0.3912 ( 16)  0.3323 ( 17)  0.3080 ( 18)
          -0.1566 ( 20)  0.3236 ( 22) -0.1377 ( 23) -0.3392 ( 24) -0.1233 ( 25)
          -0.1666 ( 35)  0.1150 ( 36) -0.1475 ( 37)  0.1092 ( 39) -0.1389 ( 53)
           0.1419 ( 56)
 CRD 10=  -0.1026 (  8)  0.1037 (  9) -0.1005 ( 14)  0.3234 ( 18) -0.3970 ( 19)
           0.3865 ( 20)  0.3925 ( 21) -0.3243 ( 22) -0.3812 ( 23)  0.1368 ( 32)
          -0.1356 ( 33)  0.1340 ( 34) -0.1172 ( 36) -0.1354 ( 38)  0.1173 ( 39)
 CRD 11=  -0.1161 ( 11)  0.1163 ( 12)  0.1251 ( 13) -0.1128 ( 15) -0.4184 ( 16)
          -0.3717 ( 18)  0.1850 ( 20)  0.3793 ( 22) -0.1520 ( 23)  0.4508 ( 24)
          -0.1922 ( 35)  0.1481 ( 36)  0.2071 ( 37) -0.1454 ( 39)
 CRD 12=  -0.2515 (  2) -0.3710 (  4) -0.1748 (  7) -0.5021 ( 17)  0.1992 ( 18)
          -0.2097 ( 19)  0.2194 ( 20) -0.2135 ( 21)  0.1659 ( 22)  0.2487 ( 23)
          -0.1475 ( 25) -0.1174 ( 30) -0.2258 ( 31)  0.1158 ( 32)  0.1274 ( 33)
 CRD 13=   0.2150 (  2) -0.1719 (  3)  0.4175 (  4)  0.1085 (  6)  0.1170 ( 11)
           0.1053 ( 13)  0.1546 ( 16) -0.1006 ( 19) -0.1116 ( 20)  0.1433 ( 24)
          -0.1780 ( 25)  0.1482 ( 26)  0.1248 ( 27)  0.1139 ( 28) -0.2826 ( 30)
          -0.1432 ( 34) -0.1352 ( 38) -0.1407 ( 52) -0.1457 ( 53)  0.1050 ( 54)
          -0.1109 ( 55)  0.1464 ( 56)  0.1372 ( 57) -0.1661 ( 58) -0.1710 ( 59)
           0.1454 ( 60) -0.1362 ( 61)  0.1208 ( 63)  0.1152 ( 65)  0.1475 ( 66)
           0.1567 ( 67) -0.1252 ( 68)
 CRD 14=  -0.1851 ( 43) -0.2191 ( 44) -0.1886 ( 45) -0.1580 ( 46) -0.1946 ( 47)
          -0.1922 ( 48) -0.2218 ( 49) -0.1913 ( 50) -0.1577 ( 51) -0.2159 ( 52)
          -0.1855 ( 53) -0.1910 ( 54) -0.1890 ( 55) -0.1877 ( 56) -0.2182 ( 57)
          -0.2184 ( 58) -0.1879 ( 59) -0.1625 ( 60) -0.1914 ( 61) -0.1622 ( 62)
          -0.1895 ( 63) -0.1623 ( 64) -0.1933 ( 65) -0.2204 ( 66) -0.1900 ( 67)
          -0.1621 ( 68) -0.1894 ( 69)
 CRD 15=  -0.1828 ( 10) -0.1125 ( 12)  0.1906 ( 14)  0.1276 ( 15) -0.1563 ( 41)
           0.3006 ( 43) -0.1058 ( 44)  0.2804 ( 46) -0.1551 ( 47) -0.1265 ( 48)
          -0.1373 ( 49) -0.1174 ( 50)  0.2833 ( 51) -0.1125 ( 54)  0.2237 ( 60)
          -0.1143 ( 61)  0.2266 ( 62)  0.2439 ( 63)  0.2255 ( 64) -0.1358 ( 65)
          -0.1180 ( 66)  0.2284 ( 68)  0.2457 ( 69)
 CRD 16=  -0.4228 (  7) -0.3516 (  8) -0.3451 (  9)  0.2483 ( 10)  0.2416 ( 11)
           0.1644 ( 12)  0.1944 ( 13)  0.2121 ( 14)  0.1218 ( 15)  0.1273 ( 17)
          -0.1159 ( 18)  0.1742 ( 20) -0.1324 ( 22)  0.1689 ( 23) -0.2009 ( 31)
          -0.1361 ( 32) -0.1389 ( 33)  0.1009 ( 34)  0.1139 ( 35)
 CRD 17=   0.2552 ( 10)  0.3589 ( 11)  0.3180 ( 12) -0.3864 ( 13) -0.2831 ( 14)
          -0.3338 ( 15) -0.1060 ( 16)  0.1355 ( 18)  0.1714 ( 19) -0.1649 ( 21)
          -0.1202 ( 22)  0.1140 ( 24)  0.1017 ( 34)  0.1677 ( 35)  0.1261 ( 36)
          -0.1805 ( 37) -0.1128 ( 38) -0.1324 ( 39)  0.1026 ( 60)  0.1031 ( 62)
           0.1013 ( 64)  0.1018 ( 68)
 CRD 18=  -0.1054 (  3) -0.2741 (  7) -0.3206 (  8) -0.3209 (  9) -0.2954 ( 10)
          -0.2604 ( 11) -0.2909 ( 12) -0.2614 ( 13) -0.2976 ( 14) -0.2928 ( 15)
           0.1097 ( 16)  0.1192 ( 17)  0.1061 ( 20)  0.1061 ( 23)  0.1103 ( 24)
          -0.1126 ( 31) -0.1114 ( 32) -0.1114 ( 33) -0.1025 ( 34) -0.1056 ( 35)
          -0.1028 ( 36) -0.1061 ( 37) -0.1031 ( 38) -0.1035 ( 39)
 CRD 19=   0.1868 (  3) -0.1495 (  4) -0.1056 (  5) -0.1283 (  6) -0.1039 (  7)
           0.2374 (  8)  0.2574 (  9) -0.2661 ( 12) -0.2485 ( 15)  0.1133 ( 25)
           0.2102 ( 30) -0.2003 ( 44) -0.1858 ( 45)  0.1934 ( 47) -0.2061 ( 48)
           0.1859 ( 49)  0.1703 ( 50) -0.1585 ( 52) -0.1440 ( 53)  0.1488 ( 54)
          -0.1643 ( 55)  0.1258 ( 56)  0.1413 ( 57) -0.1575 ( 58) -0.1430 ( 59)
          -0.1633 ( 61)  0.1594 ( 65)  0.1519 ( 66)  0.1363 ( 67)
 CRD 20=   0.1216 (  8) -0.1517 (  9)  0.4110 ( 11) -0.3122 ( 12) -0.4431 ( 13)
           0.1150 ( 14)  0.3097 ( 15) -0.2062 ( 35)  0.1712 ( 36)  0.2223 ( 37)
          -0.1695 ( 39) -0.1311 ( 45)  0.1005 ( 47)  0.1107 ( 48) -0.1238 ( 50)
          -0.1345 ( 53)  0.1073 ( 55) -0.1263 ( 56) -0.1232 ( 59)  0.1186 ( 61)
           0.1086 ( 65) -0.1157 ( 67)
 CRD 21=   0.3803 (  7) -0.1761 (  8) -0.1470 (  9)  0.3305 ( 10) -0.3367 ( 11)
          -0.2854 ( 13)  0.3228 ( 14) -0.2002 ( 31)  0.1045 ( 33) -0.1763 ( 34)
           0.1684 ( 35)  0.1420 ( 37) -0.1706 ( 38)  0.1028 ( 46) -0.1044 ( 51)
          -0.1016 ( 52) -0.1021 ( 58)  0.1048 ( 60) -0.1024 ( 62)  0.1012 ( 64)
          -0.1059 ( 68)
 CRD 22=  -0.4604 (  7)  0.2065 (  8)  0.1989 (  9)  0.1020 ( 10) -0.3255 ( 11)
           0.2008 ( 12) -0.3346 ( 13)  0.1018 ( 14)  0.2078 ( 15)  0.2346 ( 31)
          -0.1148 ( 32) -0.1185 ( 33)  0.1637 ( 35) -0.1083 ( 36)  0.1686 ( 37)
          -0.1122 ( 39) -0.1251 ( 46)  0.1254 ( 51) -0.1026 ( 54)  0.1049 ( 55)
          -0.1100 ( 59) -0.1086 ( 60)  0.1418 ( 62) -0.1414 ( 64)  0.1074 ( 67)
           0.1090 ( 68)
 CRD 23=  -0.3591 (  8)  0.3601 (  9)  0.2991 ( 10) -0.2891 ( 12) -0.3045 ( 14)
           0.2935 ( 15) -0.1912 ( 32)  0.1903 ( 33) -0.1646 ( 34)  0.1547 ( 36)
           0.1673 ( 38) -0.1566 ( 39)  0.1428 ( 43)  0.1145 ( 44)  0.1122 ( 49)
           0.1144 ( 52)  0.1121 ( 57)  0.1147 ( 58)  0.1426 ( 63)  0.1124 ( 66)
           0.1426 ( 69)
 CRD 24=   0.3931 (  8) -0.3811 (  9)  0.3226 ( 10) -0.1463 ( 11) -0.1685 ( 12)
           0.1577 ( 13) -0.2831 ( 14)  0.1170 ( 15)  0.2132 ( 32) -0.2205 ( 33)
          -0.1856 ( 34)  0.1637 ( 38) -0.1262 ( 43)  0.1026 ( 46) -0.1136 ( 47)
          -0.1049 ( 48)  0.1101 ( 51) -0.1251 ( 54) -0.1154 ( 55)  0.1159 ( 60)
          -0.1060 ( 61)  0.1234 ( 62) -0.1129 ( 63)  0.1152 ( 64) -0.1164 ( 65)
           0.1227 ( 68) -0.1135 ( 69)
 CRD 25=   0.2460 (  7) -0.1063 (  9) -0.2563 ( 10) -0.1328 ( 11)  0.3354 ( 12)
          -0.1056 ( 13) -0.2881 ( 14)  0.3495 ( 15) -0.1614 ( 31)  0.1580 ( 34)
          -0.2188 ( 36)  0.1799 ( 38) -0.2261 ( 39) -0.1498 ( 45)  0.1495 ( 50)
          -0.1613 ( 53) -0.1037 ( 55)  0.1582 ( 56) -0.1648 ( 59) -0.1073 ( 61)
           0.1097 ( 64)  0.1653 ( 67)
 CRD 26=   0.2383 (  5) -0.2211 (  6) -0.1640 (  8)  0.1334 (  9) -0.2697 ( 10)
          -0.1019 ( 11) -0.1246 ( 12)  0.1098 ( 13)  0.2690 ( 14)  0.1558 ( 15)
           0.2045 ( 19)  0.1230 ( 20) -0.2091 ( 21) -0.1439 ( 23) -0.1554 ( 28)
           0.1675 ( 29)  0.1356 ( 32) -0.1223 ( 33)  0.1775 ( 35)  0.1367 ( 36)
          -0.1912 ( 37) -0.1304 ( 39)  0.3188 ( 41) -0.1380 ( 43) -0.1211 ( 54)
          -0.1113 ( 55)  0.1351 ( 60)  0.1376 ( 62)  0.1287 ( 64)  0.1312 ( 68)
 CRD 27=  -0.7028 (  2)  0.2132 (  7)  0.1056 (  9)  0.1235 ( 11) -0.1184 ( 12)
           0.1300 ( 13) -0.1096 ( 15)  0.1791 ( 17)  0.1034 ( 26) -0.1552 ( 32)
          -0.1611 ( 33)  0.1147 ( 35)  0.1020 ( 37) -0.1673 ( 59)  0.1050 ( 62)
           0.1664 ( 67)
 CRD 28=  -0.2733 (  2)  0.1034 (  3) -0.1949 (  8) -0.2050 (  9)  0.1568 ( 11)
           0.1859 ( 12)  0.1436 ( 13)  0.1678 ( 15)  0.1663 ( 16) -0.1328 ( 17)
           0.1422 ( 18) -0.1523 ( 20)  0.1576 ( 22) -0.1454 ( 23)  0.1447 ( 24)
           0.2787 ( 25) -0.1167 ( 26)  0.2318 ( 31)  0.1034 ( 33) -0.1992 ( 34)
          -0.1084 ( 35) -0.1859 ( 38) -0.2209 ( 44) -0.1913 ( 45)  0.1503 ( 47)
          -0.1610 ( 48)  0.2050 ( 49)  0.1767 ( 50)
 CRD 29=   0.3656 (  2) -0.2738 (  3) -0.3368 (  4) -0.2097 (  5) -0.2048 (  6)
           0.1985 (  7)  0.1403 (  8)  0.1408 (  9)  0.1029 ( 10)  0.1682 ( 11)
           0.1703 ( 13)  0.1061 ( 14)  0.1414 ( 16)  0.1851 ( 17)  0.1235 ( 18)
           0.1256 ( 19)  0.1598 ( 20)  0.1228 ( 21)  0.1208 ( 22)  0.1597 ( 23)
           0.1445 ( 24) -0.1428 ( 31) -0.1848 ( 32) -0.1853 ( 33) -0.1445 ( 34)
          -0.1505 ( 36) -0.1006 ( 37) -0.1470 ( 38) -0.1534 ( 39)
 CRD 30=   0.4647 (  5) -0.4312 (  6)  0.1035 (  9)  0.1198 ( 10)  0.1582 ( 11)
           0.1606 ( 12) -0.1705 ( 13) -0.1388 ( 14) -0.1634 ( 15)  0.1628 ( 16)
          -0.1884 ( 18) -0.1568 ( 19)  0.1422 ( 21)  0.1781 ( 22) -0.1754 ( 24)
          -0.1801 ( 34) -0.1581 ( 35) -0.1522 ( 36)  0.1704 ( 37)  0.1869 ( 38)
           0.1713 ( 39)  0.1240 ( 40)  0.1719 ( 41)  0.1274 ( 42)
 CRD 31=  -0.2850 (  2) -0.1727 (  3)  0.4902 (  4) -0.2348 (  5) -0.2397 (  6)
          -0.1373 (  7)  0.1368 (  8)  0.1379 (  9)  0.1617 ( 10) -0.1131 ( 11)
           0.1483 ( 12) -0.1149 ( 13)  0.1609 ( 14)  0.1465 ( 15) -0.2009 ( 31)
          -0.2214 ( 35) -0.2199 ( 37)  0.1352 ( 54) -0.1358 ( 55)  0.1263 ( 59)
          -0.1338 ( 62)  0.1345 ( 64) -0.1264 ( 67)
 CRD 32=   0.4812 (  3) -0.2021 (  5) -0.2550 (  6) -0.1675 (  7)  0.1925 ( 10)
           0.1064 ( 11) -0.1258 ( 12)  0.1969 ( 14) -0.1460 ( 15) -0.1318 ( 20)
          -0.1331 ( 23) -0.1805 ( 25)  0.1044 ( 26)  0.1528 ( 32)  0.1336 ( 33)
          -0.2068 ( 36) -0.2001 ( 39)  0.2446 ( 44) -0.1136 ( 47)  0.1148 ( 48)
          -0.2270 ( 49)
 CRD 33=  -0.1143 (  8)  0.1144 (  9)  0.2750 ( 10) -0.2728 ( 12) -0.2636 ( 14)
           0.2612 ( 15)  0.1124 ( 19) -0.1152 ( 21)  0.2221 ( 34) -0.1950 ( 36)
          -0.2145 ( 38)  0.1853 ( 39) -0.1898 ( 44)  0.1036 ( 46)  0.1159 ( 47)
           0.1163 ( 48) -0.2017 ( 49)  0.1022 ( 51) -0.1863 ( 52)  0.1001 ( 53)
           0.1223 ( 54)  0.1198 ( 55)  0.1040 ( 56) -0.1954 ( 57) -0.1734 ( 58)
           0.1130 ( 59)  0.1327 ( 61)  0.1342 ( 65) -0.1834 ( 66)  0.1160 ( 67)
 CRD 34=  -0.2862 (  8)  0.2981 (  9) -0.1782 ( 11)  0.1554 ( 12)  0.1921 ( 13)
          -0.1346 ( 15) -0.1363 ( 20)  0.1308 ( 23)  0.1252 ( 28) -0.1349 ( 29)
           0.2263 ( 32) -0.2144 ( 33) -0.1249 ( 35)  0.1362 ( 36)  0.1347 ( 37)
          -0.1219 ( 39) -0.1721 ( 41) -0.1992 ( 43) -0.1400 ( 45)  0.1466 ( 46)
          -0.1443 ( 50)  0.1298 ( 51) -0.1005 ( 53)  0.1088 ( 54)  0.1314 ( 55)
          -0.1063 ( 56) -0.1717 ( 59)  0.1351 ( 60)  0.1183 ( 62) -0.2107 ( 63)
           0.1402 ( 64) -0.1724 ( 67)  0.1235 ( 68) -0.2055 ( 69)
 CRD 35=  -0.3213 (  7)  0.1498 (  8)  0.1310 (  9) -0.1990 ( 10)  0.1791 ( 11)
           0.1430 ( 13) -0.1927 ( 14)  0.1133 ( 17)  0.1100 ( 30) -0.2282 ( 31)
           0.1278 ( 32)  0.1420 ( 33) -0.1663 ( 34)  0.1270 ( 35)  0.1014 ( 37)
          -0.1582 ( 38)  0.1890 ( 46) -0.1945 ( 47)  0.1792 ( 48) -0.2023 ( 51)
          -0.2128 ( 54)  0.1943 ( 55)  0.1600 ( 60)  0.1681 ( 61) -0.2313 ( 62)
           0.2177 ( 64) -0.1800 ( 65) -0.1736 ( 68)
 CRD 36=  -0.2054 (  8)  0.1878 (  9) -0.1412 ( 10)  0.2304 ( 11) -0.2482 ( 13)
           0.1338 ( 14)  0.1103 ( 15)  0.1070 ( 24)  0.1397 ( 32) -0.1537 ( 33)
          -0.1106 ( 34)  0.1812 ( 35) -0.1952 ( 37)  0.1055 ( 38) -0.1178 ( 40)
          -0.1983 ( 41) -0.1236 ( 42) -0.1576 ( 43)  0.1633 ( 45) -0.1462 ( 47)
          -0.1526 ( 48)  0.1469 ( 50)  0.2130 ( 53) -0.1029 ( 55)  0.2051 ( 56)
           0.1884 ( 59) -0.1275 ( 61) -0.2427 ( 63) -0.1108 ( 65)  0.1823 ( 67)
          -0.2409 ( 69)
 CRD 37=   0.2536 (  3) -0.1115 (  5) -0.1398 (  6)  0.1184 (  7) -0.1180 ( 10)
           0.2122 ( 12) -0.1404 ( 14)  0.2154 ( 15) -0.1356 ( 18)  0.1357 ( 19)
           0.1258 ( 21) -0.1260 ( 22) -0.1858 ( 25)  0.1044 ( 26)  0.1125 ( 30)
           0.1359 ( 31) -0.1038 ( 34)  0.1384 ( 36) -0.1168 ( 38)  0.1442 ( 39)
           0.1088 ( 40) -0.1172 ( 42)  0.2400 ( 45) -0.1046 ( 46) -0.1373 ( 47)
           0.1618 ( 48) -0.2355 ( 50) -0.2365 ( 52)  0.2151 ( 57) -0.2649 ( 58)
          -0.1176 ( 60)  0.2502 ( 66)  0.1205 ( 68)
 CRD 38=   0.2529 (  4)  0.1603 (  7)  0.1607 ( 11)  0.1606 ( 13) -0.1238 ( 16)
          -0.1231 ( 17) -0.1237 ( 24) -0.1066 ( 25) -0.1054 ( 26) -0.1055 ( 27)
           0.1081 ( 31)  0.1082 ( 35)  0.1082 ( 37) -0.1198 ( 45) -0.1194 ( 46)
          -0.1196 ( 47)  0.1196 ( 48)  0.1198 ( 50)  0.1194 ( 51) -0.1424 ( 52)
          -0.2622 ( 53)  0.2622 ( 56)  0.1425 ( 57)  0.1421 ( 58) -0.2611 ( 60)
           0.2618 ( 61) -0.1416 ( 63) -0.2619 ( 65) -0.1422 ( 66)  0.2611 ( 68)
           0.1417 ( 69)
 CRD 39=  -0.1890 (  5)  0.1754 (  6) -0.1238 ( 26)  0.1334 ( 27)  0.5353 ( 40)
           0.3618 ( 41)  0.5228 ( 42)  0.1180 ( 43)  0.1682 ( 46) -0.1280 ( 47)
          -0.1091 ( 48)  0.1709 ( 51)

 THE DETERMINANT OF THE G MATRIX IS 10**(   -18)


                     --------------------
                     INTERNAL COORDINATES
                     --------------------

                 - - ATOMS - -         COORDINATE      COORDINATE
 NO.   TYPE    I  J  K  L  M  N        (BOHR,RAD)       (ANG,DEG)
 ----------------------------------------------------------------
   1 BEND      1  3  2                  2.7227136     156.0000000
   2 STRETCH   1  3                     3.9655853       2.0984975
   3 STRETCH   2  4                     3.3484320       1.7719140
   4 STRETCH   2  3                     3.2154201       1.7015272
   5 STRETCH   2  6                     3.3484566       1.7719271
   6 STRETCH   2  5                     3.3484461       1.7719215
   7 STRETCH   4  8                     2.0698887       1.0953380
   8 STRETCH   4  7                     2.0585963       1.0893623
   9 STRETCH   4  9                     2.0585769       1.0893521
  10 STRETCH   5 12                     2.0585887       1.0893583
  11 STRETCH   5 11                     2.0699049       1.0953466
  12 STRETCH   5 10                     2.0585850       1.0893563
  13 STRETCH   6 15                     2.0699113       1.0953500
  14 STRETCH   6 14                     2.0585734       1.0893502
  15 STRETCH   6 13                     2.0585905       1.0893593
  16 BEND      2  5 11                  1.8617257     106.6690242
  17 BEND      2  4  8                  1.8617503     106.6704366
  18 BEND      2  6 13                  1.9422064     111.2802298
  19 BEND      2  6 14                  1.9421731     111.2783195
  20 BEND      2  4  9                  1.9421657     111.2778965
  21 BEND      2  5 12                  1.9421929     111.2794586
  22 BEND      2  5 10                  1.9422210     111.2810643
  23 BEND      2  4  7                  1.9421835     111.2789152
  24 BEND      2  6 15                  1.8617547     106.6706876
  25 BEND      3  2  4                  1.8566295     106.3770343
  26 BEND      3  2  5                  1.8564257     106.3653596
  27 BEND      3  2  6                  1.8563668     106.3619840
  28 BEND      4  2  6                  1.9615455     112.3882757
  29 BEND      4  2  5                  1.9615420     112.3880789
  30 BEND      5  2  6                  1.9615340     112.3876199
  31 BEND      7  4  9                  1.9411093     111.2173696
  32 BEND      7  4  8                  1.8865465     108.0911531
  33 BEND      8  4  9                  1.8865760     108.0928403
  34 BEND     10  5 11                  1.8865249     108.0899157
  35 BEND     10  5 12                  1.9411462     111.2194854
  36 BEND     11  5 12                  1.8865127     108.0892176
  37 BEND     13  6 14                  1.9411688     111.2207796
  38 BEND     13  6 15                  1.8864953     108.0882171
  39 BEND     14  6 15                  1.8865259     108.0899695
  40 TORSION   1  3  2  5               0.9826059      56.2991703
  41 TORSION   1  3  2  4               3.0770573     176.3023961
  42 TORSION   1  3  2  6              -1.1117026     -63.6958676
  43 TORSION   3  2  4  8               3.1415018     179.9947971
  44 TORSION   3  2  6 15               3.1414176     179.9899701
  45 TORSION   3  2  6 14              -1.0879358     -62.3341312
  46 TORSION   3  2  4  7              -1.0878237     -62.3277076
  47 TORSION   3  2  5 10              -1.0876530     -62.3179262
  48 TORSION   3  2  6 13               1.0876044      62.3151424
  49 TORSION   3  2  5 11              -3.1414924    -179.9942563
  50 TORSION   3  2  5 12               1.0878833      62.3311241
  51 TORSION   3  2  4  9               1.0876163      62.3158257
  52 TORSION   4  2  6 15              -1.1167595     -63.9856053
  53 TORSION   4  2  6 14               0.9370724      53.6902935
  54 TORSION   4  2  5 10              -3.1126949    -178.3442782
  55 TORSION   4  2  6 13               3.1126126     178.3395670
  56 TORSION   4  2  5 12              -0.9371585     -53.6952280
  57 TORSION   4  2  5 11               1.1166510      63.9793917
  58 TORSION   5  2  6 15               1.1166606      63.9799412
  59 TORSION   5  2  6 14              -3.1126928    -178.3441601
  60 TORSION   5  2  4  7               0.9370955      53.6916197
  61 TORSION   5  2  6 13              -0.9371526     -53.6948865
  62 TORSION   5  2  4  9               3.1125356     178.3351530
  63 TORSION   5  2  4  8              -1.1167642     -63.9858756
  64 TORSION   6  2  4  7              -3.1126739    -178.3430761
  65 TORSION   6  2  5 10               0.9370685      53.6900713
  66 TORSION   6  2  5 11              -1.1167709     -63.9862587
  67 TORSION   6  2  5 12               3.1126049     178.3391216
  68 TORSION   6  2  4  9              -0.9372338     -53.6995428
  69 TORSION   6  2  4  8               1.1166517      63.9794286

     ------------------------------------------
     THE POINT GROUP IS C1 , NAXIS= 0, ORDER= 1
     ------------------------------------------

 -- VARIATIONAL SPACE WILL BE RESTRICTED TO PURE SPHERICAL HARMONICS ONLY --
 AFTER EXCLUDING CONTAMINANT COMBINATIONS FROM THE CARTESIAN GAUSSIAN BASIS
 SET, THE NUMBER OF SPHERICAL HARMONICS KEPT IN THE VARIATION SPACE IS  316

     DIMENSIONS OF THE SYMMETRY SUBSPACES ARE
 A   =  316

 ..... DONE SETTING UP THE RUN .....
 CPU     0: STEP CPU TIME=     0.10 TOTAL CPU TIME=        0.1 (    0.0 MIN)
 TOTAL WALL CLOCK TIME=        0.2 SECONDS, CPU UTILIZATION IS  58.82%


          -----------------------------
          STATIONARY POINT LOCATION RUN
          -----------------------------


           ** GEOMETRY CONSTRAINTS ARE BEING APPLIED. **

          TRANSFORMING DISPLACEMENT FROM INTERNALS TO CARTESIANS
          THE ROOT MEAN SQUARE ERROR IN ITERATION   1 IS   0.00000000
 WARNING! THE RADIUS IN CARTESIANS IS    0.00000
 OBTAINING INITIAL HESSIAN, HESS=GUESS   
 DIAGONAL GUESS HESSIAN IN INTERNAL COORDS IS
     1  0.3179     2  0.5872     3  0.4357     4  0.4035     5  0.4357
     6  0.4357     7  0.3428     8  0.3468     9  0.3468    10  0.3468
    11  0.3428    12  0.3468    13  0.3428    14  0.3468    15  0.3468
    16  0.2410    17  0.2410    18  0.2414    19  0.2414    20  0.2414
    21  0.2414    22  0.2414    23  0.2414    24  0.2410    25  0.2834
    26  0.2834    27  0.2834    28  0.2919    29  0.2919    30  0.2919
    31  0.2035    32  0.2032    33  0.2032    34  0.2032    35  0.2035
    36  0.2032    37  0.2035    38  0.2032    39  0.2032    40  0.2500
    41  0.2500    42  0.2500    43  0.2500    44  0.2500    45  0.2500
    46  0.2500    47  0.2500    48  0.2500    49  0.2500    50  0.2500
    51  0.2500    52  0.2500    53  0.2500    54  0.2500    55  0.2500
    56  0.2500    57  0.2500    58  0.2500    59  0.2500    60  0.2500
    61  0.2500    62  0.2500    63  0.2500    64  0.2500    65  0.2500
    66  0.2500    67  0.2500    68  0.2500    69  0.2500
 TRANSFORMING HESSIAN TO SYMMETRY COORDINATES

          PARAMETERS CONTROLLING GEOMETRY SEARCH ARE
          METHOD =QA                  UPHESS =BFGS    
          NNEG   =         0          NFRZ   =         0
          NSTEP  =        50          IFOLOW =         1
          HESS   =GUESS               RESTAR =         F
          IHREP  =         0          HSSEND =         F
          NPRT   =         0          NPUN   =         0
          OPTTOL = 1.000E-04          RMIN   = 1.500E-03
          RMAX   = 1.000E-01          RLIM   = 7.000E-02
          DXMAX  = 3.000E-01          PURIFY =         F
          MOVIE  =         F          TRUPD  =         T
          TRMAX  = 5.000E-01          TRMIN  = 5.000E-02
          ITBMAT =         5          STPT   =         F
          STSTEP = 1.000E-02          PROJCT=          T

 BEGINNING GEOMETRY SEARCH POINT NSERCH=   0 ...

 COORDINATES OF ALL ATOMS ARE (ANGS)
   ATOM   CHARGE       X              Y              Z
 ------------------------------------------------------------
 LA         57.0   0.3143500000   0.8802800000  -4.0288700000
 P          15.0   0.1967921435   0.1886327588  -0.3777614344
 O           8.0  -0.1001300000   0.6702700000  -1.9824600000
 C           6.0  -1.1558001286   0.8044469594   0.5870941868
 C           6.0   1.7434266517   0.9192063615   0.0847206579
 C           6.0   0.2643486412  -1.5819454312  -0.3924060868
 H           1.0  -1.1975414506   1.8926731687   0.5600455834
 H           1.0  -0.9694607414   0.4968202129   1.6216997790
 H           1.0  -2.1006323040   0.3656340927   0.2686238220
 H           1.0   2.5571409266   0.5499099489  -0.5383254350
 H           1.0   1.9395999561   0.6120519097   1.1176564561
 H           1.0   1.6900434546   2.0069666847   0.0596362067
 H           1.0   1.0839495955  -1.9411975112  -1.0136112323
 H           1.0  -0.6862003977  -2.0112381274  -0.7068074685
 H           1.0   0.4556010698  -1.8976409948   0.6388796838


                     --------------------
                     INTERNAL COORDINATES
                     --------------------

                 - - ATOMS - -         COORDINATE      COORDINATE
 NO.   TYPE    I  J  K  L  M  N        (BOHR,RAD)       (ANG,DEG)
 ----------------------------------------------------------------
   1 BEND      1  3  2                  2.7227136     156.0000000
   2 STRETCH   1  3                     3.9655853       2.0984975
   3 STRETCH   2  4                     3.3484320       1.7719140
   4 STRETCH   2  3                     3.2154201       1.7015272
   5 STRETCH   2  6                     3.3484566       1.7719271
   6 STRETCH   2  5                     3.3484461       1.7719215
   7 STRETCH   4  8                     2.0698887       1.0953380
   8 STRETCH   4  7                     2.0585963       1.0893623
   9 STRETCH   4  9                     2.0585769       1.0893521
  10 STRETCH   5 12                     2.0585887       1.0893583
  11 STRETCH   5 11                     2.0699049       1.0953466
  12 STRETCH   5 10                     2.0585850       1.0893563
  13 STRETCH   6 15                     2.0699113       1.0953500
  14 STRETCH   6 14                     2.0585734       1.0893502
  15 STRETCH   6 13                     2.0585905       1.0893593
  16 BEND      2  5 11                  1.8617257     106.6690242
  17 BEND      2  4  8                  1.8617503     106.6704366
  18 BEND      2  6 13                  1.9422064     111.2802298
  19 BEND      2  6 14                  1.9421731     111.2783195
  20 BEND      2  4  9                  1.9421657     111.2778965
  21 BEND      2  5 12                  1.9421929     111.2794586
  22 BEND      2  5 10                  1.9422210     111.2810643
  23 BEND      2  4  7                  1.9421835     111.2789152
  24 BEND      2  6 15                  1.8617547     106.6706876
  25 BEND      3  2  4                  1.8566295     106.3770343
  26 BEND      3  2  5                  1.8564257     106.3653596
  27 BEND      3  2  6                  1.8563668     106.3619840
  28 BEND      4  2  6                  1.9615455     112.3882757
  29 BEND      4  2  5                  1.9615420     112.3880789
  30 BEND      5  2  6                  1.9615340     112.3876199
  31 BEND      7  4  9                  1.9411093     111.2173696
  32 BEND      7  4  8                  1.8865465     108.0911531
  33 BEND      8  4  9                  1.8865760     108.0928403
  34 BEND     10  5 11                  1.8865249     108.0899157
  35 BEND     10  5 12                  1.9411462     111.2194854
  36 BEND     11  5 12                  1.8865127     108.0892176
  37 BEND     13  6 14                  1.9411688     111.2207796
  38 BEND     13  6 15                  1.8864953     108.0882171
  39 BEND     14  6 15                  1.8865259     108.0899695
  40 TORSION   1  3  2  5               0.9826059      56.2991703
  41 TORSION   1  3  2  4               3.0770573     176.3023961
  42 TORSION   1  3  2  6              -1.1117026     -63.6958676
  43 TORSION   3  2  4  8               3.1415018     179.9947971
  44 TORSION   3  2  6 15               3.1414176     179.9899701
  45 TORSION   3  2  6 14              -1.0879358     -62.3341312
  46 TORSION   3  2  4  7              -1.0878237     -62.3277076
  47 TORSION   3  2  5 10              -1.0876530     -62.3179262
  48 TORSION   3  2  6 13               1.0876044      62.3151424
  49 TORSION   3  2  5 11              -3.1414924    -179.9942563
  50 TORSION   3  2  5 12               1.0878833      62.3311241
  51 TORSION   3  2  4  9               1.0876163      62.3158257
  52 TORSION   4  2  6 15              -1.1167595     -63.9856053
  53 TORSION   4  2  6 14               0.9370724      53.6902935
  54 TORSION   4  2  5 10              -3.1126949    -178.3442782
  55 TORSION   4  2  6 13               3.1126126     178.3395670
  56 TORSION   4  2  5 12              -0.9371585     -53.6952280
  57 TORSION   4  2  5 11               1.1166510      63.9793917
  58 TORSION   5  2  6 15               1.1166606      63.9799412
  59 TORSION   5  2  6 14              -3.1126928    -178.3441601
  60 TORSION   5  2  4  7               0.9370955      53.6916197
  61 TORSION   5  2  6 13              -0.9371526     -53.6948865
  62 TORSION   5  2  4  9               3.1125356     178.3351530
  63 TORSION   5  2  4  8              -1.1167642     -63.9858756
  64 TORSION   6  2  4  7              -3.1126739    -178.3430761
  65 TORSION   6  2  5 10               0.9370685      53.6900713
  66 TORSION   6  2  5 11              -1.1167709     -63.9862587
  67 TORSION   6  2  5 12               3.1126049     178.3391216
  68 TORSION   6  2  4  9              -0.9372338     -53.6995428
  69 TORSION   6  2  4  8               1.1166517      63.9794286

          ********************
          1 ELECTRON INTEGRALS
          ********************
 TIME TO DO ORDINARY INTEGRALS=      0.02
 TIME TO DO      ECP INTEGRALS=      0.07
 ...... END OF ONE-ELECTRON INTEGRALS ......
 CPU     0: STEP CPU TIME=     0.09 TOTAL CPU TIME=        0.2 (    0.0 MIN)
 TOTAL WALL CLOCK TIME=        0.3 SECONDS, CPU UTILIZATION IS  63.33%

          -------------
          GUESS OPTIONS
          -------------
          GUESS =HUCKEL            NORB  =       0          NORDER=       0
          MIX   =       F          PRTMO =       F          PUNMO =       F
          TOLZ  = 1.0E-08          TOLE  = 1.0E-05
          SYMDEN=       F          PURIFY=       F

 INITIAL GUESS ORBITALS GENERATED BY HUCKEL   ROUTINE.
 HUCKEL GUESS REQUIRES    916545 WORDS.

 STATISTICS FOR GENERATION OF SYMMETRY ORBITAL -Q- MATRIX
 NUMBER OF CARTESIAN ATOMIC ORBITALS=        354
 NUMBER OF SPHERICAL CONTAMINANTS DROPPED=    38
 NUMBER OF LINEARLY DEPENDENT MOS DROPPED=     0
 TOTAL NUMBER OF MOS IN VARIATION SPACE=     316

 SYMMETRIES FOR INITIAL GUESS ORBITALS FOLLOW.   BOTH SET(S).
    29 ORBITALS ARE OCCUPIED (   13 CORE ORBITALS).
    14=A       15=A       16=A       17=A       18=A       19=A       20=A   
    21=A       22=A       23=A       24=A       25=A       26=A       27=A   
    28=A       29=A       30=A       31=A       32=A       33=A       34=A   
    35=A       36=A       37=A       38=A       39=A   
 ...... END OF INITIAL ORBITAL SELECTION ......
 CPU     0: STEP CPU TIME=     0.19 TOTAL CPU TIME=        0.4 (    0.0 MIN)
 TOTAL WALL CLOCK TIME=        0.8 SECONDS, CPU UTILIZATION IS  49.35%

                    ----------------------
                    AO INTEGRAL TECHNOLOGY
                    ----------------------
     S,P,L SHELL ROTATED AXIS INTEGRALS, REPROGRAMMED BY
        KAZUYA ISHIMURA (IMS) AND JOSE SIERRA (SYNSTAR).
     S,P,D,L SHELL ROTATED AXIS INTEGRALS PROGRAMMED BY
        KAZUYA ISHIMURA (INSTITUTE FOR MOLECULAR SCIENCE).
     S,P,D,F,G SHELL TO TOTAL QUARTET ANGULAR MOMENTUM SUM 5,
        ERIC PROGRAM BY GRAHAM FLETCHER (ELORET AND NASA ADVANCED
        SUPERCOMPUTING DIVISION, AMES RESEARCH CENTER).
     S,P,D,F,G,L SHELL GENERAL RYS QUADRATURE PROGRAMMED BY
        MICHEL DUPUIS (PACIFIC NORTHWEST NATIONAL LABORATORY).

          --------------------
          2 ELECTRON INTEGRALS
          --------------------

 DIRECT SCF METHOD SKIPS INTEGRAL STORAGE ON DISK.
 DIRECT TRANSFORMATION SKIPS AO INTEGRAL STORAGE ON DISK.
  ...... END OF TWO-ELECTRON INTEGRALS .....
 CPU     0: STEP CPU TIME=     0.01 TOTAL CPU TIME=        0.4 (    0.0 MIN)
 TOTAL WALL CLOCK TIME=        0.8 SECONDS, CPU UTILIZATION IS  50.00%

          --------------------------
                 RHF SCF CALCULATION
          --------------------------

     NUCLEAR ENERGY =       336.1834171706
     MAXIT =  200     NPUNCH=    2
     EXTRAP=T  DAMP=F  SHIFT=F  RSTRCT=F  DIIS=F  DEM=F  SOSCF=T
     DENSITY MATRIX CONV=  2.00E-06
     SOSCF WILL OPTIMIZE    8323 ORBITAL ROTATIONS, SOGTOL=   0.250
     MEMORY REQUIRED FOR RHF ITERS=    982670 WORDS.

 DIRECT SCF CALCULATION, SCHWRZ=T   FDIFF=F,  DIRTHR=  0.00E+00 NITDIR=10
 SCHWARZ INEQUALITY OVERHEAD:     62216 INTEGRALS, T=        0.00

                                                                                   NONZERO     BLOCKS
 ITER EX DEM     TOTAL ENERGY        E CHANGE  DENSITY CHANGE     ORB. GRAD      INTEGRALS    SKIPPED
   1  0  0     -563.3580238750  -563.3580238750   0.374578678   0.000000000     1473701679    4123777
          ---------------START SECOND ORDER SCF---------------
   2  1  0     -564.5013132129    -1.1432893379   0.157528957   0.088902554     1461016996    4423689
   3  2  0     -564.6229865120    -0.1216732991   0.063460332   0.058892997     1459750650    4436915
   4  3  0     -564.7149038291    -0.0919173172   0.020327232   0.010171297     1460177314    4425844
   5  4  0     -564.7173996947    -0.0024958656   0.006401559   0.005605854     1460808718    4416661
   6  5  0     -564.7180496642    -0.0006499695   0.002713551   0.001336619     1460830946    4415639
   7  6  0     -564.7181107019    -0.0000610377   0.000968130   0.000500767     1460841117    4415320
   8  7  0     -564.7181187502    -0.0000080482   0.000437994   0.000175345     1460854873    4415294
   9  8  0     -564.7181201736    -0.0000014235   0.000181726   0.000068528     1460859268    4415235
  10  9  0     -564.7181204425    -0.0000002689   0.000080511   0.000024994     1460855841    4415296
  11 10  0     -564.7181204906    -0.0000000481   0.000037992   0.000012622     1460855086    4415305
  12 11  0     -564.7181204971    -0.0000000065   0.000013399   0.000006003     1460854771    4415304
  13 12  0     -564.7181204981    -0.0000000010   0.000005236   0.000002689     1460854285    4415300
  14 13  0     -564.7181204983    -0.0000000002   0.000002844   0.000000995     1460854086    4415302
  15 14  0     -564.7181204983    -0.0000000000   0.000001127   0.000000328     1460854023    4415303

          -----------------
          DENSITY CONVERGED
          -----------------
     TIME TO FORM FOCK OPERATORS=      99.0 SECONDS (       6.6 SEC/ITER)
     FOCK TIME ON FIRST ITERATION=       6.7, LAST ITERATION=       6.6
     TIME TO SOLVE SCF EQUATIONS=       0.4 SECONDS (       0.0 SEC/ITER)

 FINAL RHF ENERGY IS     -564.7181204983 AFTER  15 ITERATIONS

          ------------
          EIGENVECTORS
          ------------

                      1          2          3          4          5
                  -80.4757   -21.0474   -11.6439   -11.6425   -11.6278
                     A          A          A          A          A   
    1  LA 1  S    0.000002  -0.000020   0.000001   0.000001   0.000007
    2  LA 1  X   -0.000002   0.000008  -0.000006   0.000002   0.000006
    3  LA 1  Y    0.000001  -0.000003  -0.000005   0.000011  -0.000008
    4  LA 1  Z    0.000002  -0.000005  -0.000008  -0.000006   0.000020
    5  LA 1 XX    0.000003   0.000006  -0.000002  -0.000015   0.000004
    6  LA 1 YY    0.000003  -0.000002  -0.000016   0.000011   0.000002
    7  LA 1 ZZ   -0.000005  -0.000004   0.000018   0.000004  -0.000006
    8  LA 1 XY   -0.000000   0.000004   0.000007   0.000002  -0.000005
    9  LA 1 XZ    0.000002  -0.000025   0.000017  -0.000007   0.000006
   10  LA 1 YZ    0.000001   0.000015   0.000011  -0.000020  -0.000003
   11  LA 1 XX   -0.000002   0.000074   0.000004   0.000037   0.000026
   12  LA 1 YY    0.000000   0.000072   0.000040  -0.000018   0.000029
   13  LA 1 ZZ    0.000002  -0.000147  -0.000044  -0.000019  -0.000055
   14  LA 1 XY   -0.000000  -0.000021  -0.000018  -0.000003   0.000009
   15  LA 1 XZ    0.000005   0.000068  -0.000025   0.000025  -0.000001
   16  LA 1 YZ   -0.000003   0.000014  -0.000023   0.000035   0.000026
   17  LA 1  S   -0.000004  -0.000146  -0.000093  -0.000092  -0.000136
   18  LA 1  X    0.000001   0.000039  -0.000005   0.000022   0.000019
   19  LA 1  Y   -0.000002   0.000001  -0.000023   0.000021  -0.000003
   20  LA 1  Z    0.000004  -0.000109  -0.000024  -0.000015  -0.000032
   21  LA 1  S    0.000001   0.000049   0.000202   0.000200   0.000196
   22  LA 1  X   -0.000001  -0.000033   0.000051  -0.000008  -0.000028
   23  LA 1  Y    0.000001   0.000009   0.000004  -0.000093  -0.000016
   24  LA 1  Z   -0.000003   0.000041   0.000172   0.000150   0.000155
   25  LA 1  S   -0.000014  -0.000056   0.000000  -0.000002  -0.000039
   26  LA 1  X    0.000007   0.000005   0.000013  -0.000004  -0.000003
   27  LA 1  Y   -0.000000   0.000028   0.000011  -0.000022   0.000019
   28  LA 1  Z   -0.000017  -0.000148   0.000015   0.000006  -0.000076
   29  LA 1 XX    0.000000  -0.000013  -0.000031  -0.000065  -0.000044
   30  LA 1 YY   -0.000000  -0.000017  -0.000068   0.000000  -0.000050
   31  LA 1 ZZ   -0.000000   0.000030   0.000099   0.000065   0.000094
   32  LA 1 XY    0.000000   0.000008   0.000004  -0.000008  -0.000010
   33  LA 1 XZ   -0.000002  -0.000037   0.000062  -0.000003  -0.000012
   34  LA 1 YZ    0.000001   0.000009  -0.000002  -0.000086  -0.000030
   35  P  2  S    1.000138   0.000087   0.000076   0.000078   0.000088
   36  P  2  S    0.000176   0.000541   0.000548   0.000559   0.000621
   37  P  2  S    0.000190   0.000719   0.000857   0.000873   0.000955
   38  P  2  S   -0.000945  -0.000259  -0.000263  -0.000270  -0.000315
   39  P  2  S   -0.000360  -0.002434  -0.000003   0.000031   0.000249
   40  P  2  X   -0.000006  -0.000029   0.000421   0.000018  -0.000418
   41  P  2  Y    0.000020   0.000048   0.000202  -0.000489   0.000193
   42  P  2  Z   -0.000078  -0.000162   0.000134   0.000002   0.000283
   43  P  2  X   -0.000005  -0.000079   0.001110   0.000046  -0.001087
   44  P  2  Y    0.000017   0.000132   0.000538  -0.001285   0.000504
   45  P  2  Z   -0.000071  -0.000442   0.000334  -0.000013   0.000725
   46  P  2  X    0.000003   0.000025  -0.000044  -0.000003   0.000055
   47  P  2  Y   -0.000010  -0.000042  -0.000017   0.000056  -0.000024
   48  P  2  Z    0.000040   0.000142  -0.000029  -0.000015  -0.000046
   49  P  2  X   -0.000028  -0.000013  -0.000045  -0.000015   0.000060
   50  P  2  Y    0.000029  -0.000244  -0.000068  -0.000022  -0.000083
   51  P  2  Z   -0.000068   0.001236   0.000298   0.000313   0.000218
   52  P  2 XX   -0.000004  -0.000088   0.000152  -0.000152   0.000093
   53  P  2 YY   -0.000002  -0.000069  -0.000074   0.000248  -0.000103
   54  P  2 ZZ    0.000006   0.000157  -0.000078  -0.000097   0.000010
   55  P  2 XY    0.000000  -0.000009   0.000169  -0.000017  -0.000138
   56  P  2 XZ    0.000002   0.000048   0.000104   0.000017  -0.000187
   57  P  2 YZ   -0.000003  -0.000083   0.000021   0.000002   0.000072
   58  P  2 XX   -0.000021  -0.000082   0.000398  -0.000107   0.000202
   59  P  2 YY   -0.000018  -0.000114  -0.000091   0.000546  -0.000124
   60  P  2 ZZ    0.000039   0.000196  -0.000307  -0.000439  -0.000079
   61  P  2 XY   -0.000006  -0.000078   0.000222  -0.000054  -0.000157
   62  P  2 XZ    0.000017   0.000068   0.000219  -0.000100  -0.000484
   63  P  2 YZ   -0.000024  -0.000117   0.000267  -0.000044   0.000269
   64  P  2 XXX   0.000004   0.000065   0.000044   0.000008  -0.000002
   65  P  2 YYY  -0.000007  -0.000011  -0.000036  -0.000074  -0.000051
   66  P  2 ZZZ  -0.000010  -0.000197  -0.000038  -0.000003  -0.000077
   67  P  2 XXY  -0.000001  -0.000178   0.000047   0.000024   0.000038
   68  P  2 XXZ   0.000008   0.000118   0.000024   0.000034   0.000083
   69  P  2 YYX   0.000001   0.000012   0.000011   0.000007   0.000011
   70  P  2 YYZ   0.000005   0.000146   0.000027  -0.000030   0.000020
   71  P  2 ZZX  -0.000006  -0.000099  -0.000070  -0.000018  -0.000008
   72  P  2 ZZY   0.000010   0.000192   0.000002   0.000076   0.000030
   73  P  2 XYZ   0.000003   0.000070   0.000016   0.000013  -0.000036
   74  P  2 XX    0.000001   0.000026  -0.000001   0.000004  -0.000001
   75  P  2 YY    0.000001   0.000021   0.000002  -0.000003   0.000004
   76  P  2 ZZ   -0.000002  -0.000046  -0.000001  -0.000002  -0.000003
   77  P  2 XY    0.000000   0.000004  -0.000003   0.000000   0.000004
   78  P  2 XZ   -0.000001  -0.000015  -0.000002  -0.000002   0.000004
   79  P  2 YZ    0.000001   0.000025   0.000002   0.000001  -0.000000
   80  O  3  S   -0.000002   0.975629   0.000026   0.000026   0.000028
   81  O  3  S   -0.000004  -0.001141   0.000037   0.000038   0.000041
   82  O  3  S    0.000005   0.043362  -0.000011  -0.000010  -0.000008
   83  O  3  S   -0.000068   0.004647   0.000178   0.000177   0.000112
[...]
            144  C  4 XXZ     0.00083     0.07720
            145  C  4 YYX     0.00091     0.06805
            146  C  4 YYZ     0.00128     0.06612
            147  C  4 ZZX     0.00000     0.07192
            148  C  4 ZZY     0.00000     0.06853
            149  C  4 XYZ     0.00000     0.00300
            150  C  5  S      1.95557     1.55568
            151  C  5  S      0.82755     0.43099
            152  C  5  S      0.16153     0.27802
            153  C  5  S      0.33519     0.14804
            154  C  5  X      0.27009     0.20996
            155  C  5  Y      0.29454     0.22657
            156  C  5  Z      0.29526     0.22658
            157  C  5  X      0.51183     0.26497
            158  C  5  Y      0.53914     0.28009
            159  C  5  Z      0.54115     0.28044
            160  C  5  X      0.12788     0.18104
            161  C  5  Y      0.19350     0.20331
            162  C  5  Z      0.24734     0.21300
            163  C  5 XX      0.00512     0.08612
            164  C  5 YY      0.00529     0.08691
            165  C  5 ZZ      0.00416     0.08557
            166  C  5 XY      0.00424     0.00470
            167  C  5 XZ      0.00339     0.00439
            168  C  5 YZ      0.00000     0.00376
            169  C  5 XX      0.00858     0.09299
            170  C  5 YY      0.01318     0.09040
            171  C  5 ZZ      0.01151     0.08472
            172  C  5 XY      0.00937     0.02659
            173  C  5 XZ      0.00829     0.02504
            174  C  5 YZ      0.00000     0.01494
            175  C  5 XXX     0.00093     0.15855
            176  C  5 YYY     0.00079     0.17241
            177  C  5 ZZZ     0.00090     0.16573
            178  C  5 XXY     0.00107     0.07587
            179  C  5 XXZ     0.00100     0.08125
            180  C  5 YYX     0.00070     0.06806
            181  C  5 YYZ     0.00138     0.06711
            182  C  5 ZZX     0.00000     0.07253
            183  C  5 ZZY     0.00000     0.06708
            184  C  5 XYZ     0.00000     0.00265
            185  C  6  S      1.95557     1.55597
            186  C  6  S      0.82764     0.43277
            187  C  6  S      0.16157     0.27890
            188  C  6  S      0.33295     0.14874
            189  C  6  X      0.30040     0.22831
            190  C  6  Y      0.26067     0.20752
            191  C  6  Z      0.29881     0.22881
            192  C  6  X      0.54330     0.27925
            193  C  6  Y      0.50144     0.26682
            194  C  6  Z      0.54729     0.28018
            195  C  6  X      0.19928     0.20584
            196  C  6  Y      0.10897     0.17169
            197  C  6  Z      0.25646     0.21413
            198  C  6 XX      0.00543     0.08696
            199  C  6 YY      0.00606     0.09058
            200  C  6 ZZ      0.00343     0.08645
            201  C  6 XY      0.00454     0.00311
            202  C  6 XZ      0.00275     0.00478
            203  C  6 YZ      0.00000     0.00253
            204  C  6 XX      0.01065     0.08814
            205  C  6 YY      0.01486     0.10370
            206  C  6 ZZ      0.01006     0.08606
            207  C  6 XY      0.00892     0.02148
            208  C  6 XZ      0.00655     0.02191
            209  C  6 YZ      0.00000     0.01331
            210  C  6 XXX     0.00088     0.16231
            211  C  6 YYY     0.00096     0.16959
            212  C  6 ZZZ     0.00075     0.16408
            213  C  6 XXY     0.00125     0.06959
            214  C  6 XXZ     0.00093     0.07762
            215  C  6 YYX     0.00055     0.07735
            216  C  6 YYZ     0.00144     0.07376
            217  C  6 ZZX     0.00000     0.07624
            218  C  6 ZZY     0.00000     0.06538
            219  C  6 XYZ     0.00000     0.00270
            220  H  7  S      0.25192     0.19459
            221  H  7  S      0.45141     0.24375
            222  H  7  S      0.05779     0.11801
            223  H  7  X      0.00161     0.00210
            224  H  7  Y      0.00753     0.01116
            225  H  7  Z      0.00164     0.00208
            226  H  7  X      0.01026     0.02838
            227  H  7  Y      0.00494     0.04777
            228  H  7  Z      0.00930     0.02938
            229  H  7 XX      0.00029     0.06912
            230  H  7 YY      0.00065     0.11696
            231  H  7 ZZ      0.00098     0.06905
            232  H  7 XY      0.00010     0.00490
            233  H  7 XZ      0.00087     0.00021
            234  H  7 YZ      0.00000     0.00497
            235  H  8  S      0.24777     0.18906
            236  H  8  S      0.45069     0.23999
            237  H  8  S      0.04852     0.11520
            238  H  8  X      0.00168     0.00222
            239  H  8  Y      0.00200     0.00285
            240  H  8  Z      0.00709     0.01000
            241  H  8  X      0.00889     0.02919
            242  H  8  Y      0.00759     0.02949
            243  H  8  Z      0.00752     0.04697
            244  H  8 XX      0.00096     0.06857
            245  H  8 YY      0.00014     0.07142
            246  H  8 ZZ      0.00012     0.10941
            247  H  8 XY      0.00088     0.00039
            248  H  8 XZ      0.00076     0.00506
            249  H  8 YZ      0.00000     0.00553
            250  H  9  S      0.25181     0.18758
            251  H  9  S      0.45100     0.24187
            252  H  9  S      0.05710     0.11821
            253  H  9  X      0.00620     0.00825
            254  H  9  Y      0.00247     0.00357
            255  H  9  Z      0.00211     0.00296
            256  H  9  X      0.00967     0.04461
            257  H  9  Y      0.00696     0.03106
            258  H  9  Z      0.00783     0.03102
            259  H  9 XX      0.00041     0.10186
            260  H  9 YY      0.00091     0.07531
            261  H  9 ZZ      0.00066     0.07193
            262  H  9 XY      0.00070     0.00553
            263  H  9 XZ      0.00022     0.00522
            264  H  9 YZ      0.00000     0.00130
            265  H 10  S      0.25410     0.18699
            266  H 10  S      0.45638     0.24355
            267  H 10  S      0.07050     0.12082
            268  H 10  X      0.00521     0.00697
            269  H 10  Y      0.00229     0.00316
            270  H 10  Z      0.00317     0.00433
            271  H 10  X      0.01095     0.04307
            272  H 10  Y      0.00731     0.03091
            273  H 10  Z      0.00608     0.03510
            274  H 10 XX      0.00058     0.09554
            275  H 10 YY      0.00083     0.07302
            276  H 10 ZZ      0.00057     0.08101
            277  H 10 XY      0.00060     0.00437
            278  H 10 XZ      0.00030     0.00555
            279  H 10 YZ      0.00000     0.00222
            280  H 11  S      0.24697     0.18899
            281  H 11  S      0.44499     0.23847
            282  H 11  S      0.04256     0.11294
            283  H 11  X      0.00177     0.00256
            284  H 11  Y      0.00195     0.00275
            285  H 11  Z      0.00706     0.00991
            286  H 11  X      0.01029     0.02927
            287  H 11  Y      0.00753     0.02929
            288  H 11  Z      0.00539     0.04684
            289  H 11 XX      0.00085     0.06913
            290  H 11 YY      0.00018     0.07096
            291  H 11 ZZ      0.00012     0.10901
            292  H 11 XY      0.00093     0.00045
            293  H 11 XZ      0.00078     0.00516
            294  H 11 YZ      0.00000     0.00537
            295  H 12  S      0.25256     0.19488
            296  H 12  S      0.44819     0.24407
            297  H 12  S      0.05719     0.11794
            298  H 12  X      0.00157     0.00200
            299  H 12  Y      0.00750     0.01116
            300  H 12  Z      0.00173     0.00211
            301  H 12  X      0.01034     0.02838
            302  H 12  Y      0.00489     0.04821
            303  H 12  Z      0.00792     0.02960
            304  H 12 XX      0.00030     0.06917
            305  H 12 YY      0.00065     0.11706
            306  H 12 ZZ      0.00101     0.06919
            307  H 12 XY      0.00008     0.00477
            308  H 12 XZ      0.00082     0.00017
            309  H 12 YZ      0.00000     0.00510
            310  H 13  S      0.25403     0.18704
            311  H 13  S      0.45657     0.24294
            312  H 13  S      0.07044     0.12034
            313  H 13  X      0.00499     0.00641
            314  H 13  Y      0.00244     0.00366
            315  H 13  Z      0.00324     0.00448
            316  H 13  X      0.00464     0.04027
            317  H 13  Y      0.01336     0.03338
            318  H 13  Z      0.00645     0.03491
            319  H 13 XX      0.00056     0.09355
            320  H 13 YY      0.00066     0.07455
            321  H 13 ZZ      0.00068     0.08138
            322  H 13 XY      0.00059     0.00425
            323  H 13 XZ      0.00038     0.00544
            324  H 13 YZ      0.00000     0.00241
            325  H 14  S      0.25238     0.18827
            326  H 14  S      0.44811     0.24168
            327  H 14  S      0.05648     0.11765
            328  H 14  X      0.00592     0.00771
            329  H 14  Y      0.00264     0.00410
            330  H 14  Z      0.00224     0.00311
            331  H 14  X      0.00367     0.04279
            332  H 14  Y      0.01227     0.03354
            333  H 14  Z      0.00730     0.03074
            334  H 14 XX      0.00039     0.10015
            335  H 14 YY      0.00078     0.07707
            336  H 14 ZZ      0.00076     0.07244
            337  H 14 XY      0.00066     0.00546
            338  H 14 XZ      0.00027     0.00517
            339  H 14 YZ      0.00000     0.00148
            340  H 15  S      0.24705     0.18912
            341  H 15  S      0.44545     0.23879
            342  H 15  S      0.04321     0.11324
            343  H 15  X      0.00172     0.00231
            344  H 15  Y      0.00217     0.00343
            345  H 15  Z      0.00689     0.00955
            346  H 15  X      0.00772     0.02822
            347  H 15  Y      0.01145     0.03163
            348  H 15  Z      0.00412     0.04627
            349  H 15 XX      0.00085     0.06787
            350  H 15 YY      0.00024     0.07361
            351  H 15 ZZ      0.00014     0.10797
            352  H 15 XY      0.00074     0.00051
            353  H 15 XZ      0.00089     0.00513
            354  H 15 YZ      0.00000     0.00547

          ----- MULLIKEN ATOMIC OVERLAP POPULATIONS -----
          (OFF-DIAGONAL ELEMENTS NEED TO BE MULTIPLIED BY 2)

             1           2           3           4           5

    1    8.5811563
    2   -0.0112496  13.2959928
    3    0.0269347   0.2126890   8.5700954
    4   -0.0006490   0.3402882  -0.0167928   4.9907838
    5    0.0011708   0.3430961  -0.0158245  -0.0320724   5.0331708
    6    0.0008397   0.3435395  -0.0166756  -0.0321831  -0.0320114
    7    0.0003236  -0.0157302   0.0008170   0.3649993  -0.0025028
    8    0.0006916  -0.0149692   0.0009829   0.3604956  -0.0003711
    9    0.0003042  -0.0159176   0.0007959   0.3652974   0.0021213
   10    0.0010698  -0.0160547   0.0002769   0.0026883   0.3620009
   11    0.0002730  -0.0137504   0.0014516  -0.0009675   0.3567600
   12    0.0008209  -0.0186352   0.0009231  -0.0024145   0.3661329
   13    0.0009941  -0.0156036   0.0003887   0.0026904  -0.0034867
   14    0.0007269  -0.0183631   0.0009688  -0.0023235   0.0022643
   15    0.0003140  -0.0136906   0.0013956  -0.0009635   0.0000094

             6           7           8           9          10

    6    5.0280418
    7    0.0021567   0.4769587
    8   -0.0004362  -0.0121280   0.4627829
    9   -0.0024322  -0.0159763  -0.0119434   0.4754637
   10   -0.0034808   0.0000319   0.0000106  -0.0000686   0.5042107
   11   -0.0000389  -0.0001594   0.0000030   0.0000211  -0.0110460
   12    0.0023031   0.0005717  -0.0002532  -0.0000221  -0.0215204
   13    0.3616722  -0.0000690   0.0000104   0.0000324   0.0009127
   14    0.3660043  -0.0000195  -0.0002498   0.0005555  -0.0000171
   15    0.3570604   0.0000180   0.0000008  -0.0001746  -0.0001550

            11          12          13          14          15

   11    0.4474923
   12   -0.0084295   0.4753354
   13   -0.0001390  -0.0000148   0.5038503
   14    0.0000224  -0.0000622  -0.0208227   0.4737967
   15   -0.0001168   0.0000214  -0.0113865  -0.0086019   0.4489109

          TOTAL MULLIKEN AND LOWDIN ATOMIC POPULATIONS
       ATOM         MULL.POP.    CHARGE          LOW.POP.     CHARGE
    1 LA            8.603721    2.396279         8.779858    2.220142
    2 P            14.381642    0.618358        14.323765    0.676235
    3 O             8.768427   -0.768427         8.400997   -0.400997
    4 C             6.338877   -0.338877         6.023717   -0.023717
    5 C             6.380458   -0.380458         6.036078   -0.036078
    6 C             6.374360   -0.374360         6.046540   -0.046540
    7 H             0.799292    0.200708         0.942428    0.057572
    8 H             0.784627    0.215373         0.925347    0.074653
    9 H             0.798057    0.201943         0.930274    0.069726
   10 H             0.818859    0.181141         0.936594    0.063406
   11 H             0.771376    0.228624         0.921102    0.078898
   12 H             0.794757    0.205243         0.943805    0.056195
   13 H             0.819029    0.180971         0.935017    0.064983
   14 H             0.793879    0.206121         0.931356    0.068644
   15 H             0.772642    0.227358         0.923121    0.076879

          MULLIKEN SPHERICAL HARMONIC POPULATIONS
       ATOM           S       P       D      F      G      H      I    TOTAL
    1 LA            2.01    6.10    0.50   0.00   0.00   0.00   0.00    8.60
    2 P             5.34    8.39    0.57   0.07   0.00   0.00   0.00   14.38
    3 O             3.79    4.94    0.04   0.00   0.00   0.00   0.00    8.77
    4 C             3.27    2.99    0.07   0.01   0.00   0.00   0.00    6.34
    5 C             3.28    3.02    0.07   0.01   0.00   0.00   0.00    6.38
    6 C             3.28    3.02    0.07   0.01   0.00   0.00   0.00    6.37
    7 H             0.76    0.04    0.00   0.00   0.00   0.00   0.00    0.80
    8 H             0.75    0.03    0.00   0.00   0.00   0.00   0.00    0.78
    9 H             0.76    0.04    0.00   0.00   0.00   0.00   0.00    0.80
   10 H             0.78    0.04    0.00   0.00   0.00   0.00   0.00    0.82
   11 H             0.73    0.03    0.00   0.00   0.00   0.00   0.00    0.77
   12 H             0.76    0.03    0.00   0.00   0.00   0.00   0.00    0.79
   13 H             0.78    0.04    0.00   0.00   0.00   0.00   0.00    0.82
   14 H             0.76    0.03    0.00   0.00   0.00   0.00   0.00    0.79
   15 H             0.74    0.03    0.00   0.00   0.00   0.00   0.00    0.77

          -------------------------------
          BOND ORDER AND VALENCE ANALYSIS     BOND ORDER THRESHOLD=0.050
          -------------------------------

                   BOND                       BOND                       BOND
  ATOM PAIR DIST  ORDER      ATOM PAIR DIST  ORDER      ATOM PAIR DIST  ORDER
    1   3  2.097  0.687        2   3  1.701  0.789        2   4  1.769  1.031
    2   5  1.774  1.012        2   6  1.774  1.013        4   7  1.090  0.874
    4   8  1.095  0.858        4   9  1.090  0.874        5  10  1.089  0.878
    5  11  1.096  0.856        5  12  1.090  0.874        6  13  1.089  0.878
    6  14  1.090  0.874        6  15  1.096  0.856

                       TOTAL       BONDED        FREE
      ATOM            VALENCE     VALENCE     VALENCE
    1 LA                0.678       0.757      -0.079
    2 P                 4.594       4.239       0.355
    3 O                 2.075       1.513       0.562
    4 C                 3.932       3.641       0.291
    5 C                 3.930       3.636       0.294
    6 C                 3.929       3.636       0.293
    7 H                 0.975       0.925       0.051
    8 H                 0.968       0.917       0.051
    9 H                 0.975       0.924       0.050
   10 H                 0.981       0.929       0.052
   11 H                 0.965       0.915       0.050
   12 H                 0.972       0.921       0.051
   13 H                 0.982       0.930       0.052
   14 H                 0.972       0.921       0.050
   15 H                 0.966       0.916       0.050

          ---------------------
          ELECTROSTATIC MOMENTS
          ---------------------

 POINT   1           X           Y           Z (BOHR)    CHARGE
                 0.500584    1.150592   -4.890466        3.00 (A.U.)
         DX          DY          DZ         /D/  (DEBYE)
     1.213675   -0.388488   -1.070918    1.664571
 ...... END OF PROPERTY EVALUATION ......
 CPU     0: STEP CPU TIME=     0.21 TOTAL CPU TIME=     3171.2 (   52.9 MIN)
 TOTAL WALL CLOCK TIME=     3210.4 SECONDS, CPU UTILIZATION IS  98.78%
  $VIB   
          IVIB=   0 IATOM=   0 ICOORD=   0 E=     -565.6036800258
 -1.773880984E-05-2.519078258E-05 3.013893917E-05 2.549893922E-05-3.863297807E-05
 -5.073121315E-05 2.197301372E-05 5.645253942E-05-2.734386129E-05-3.661763904E-06
  3.726378144E-06-2.620450590E-05-2.079528353E-05 2.821039337E-05 2.188330201E-05
 -3.005789482E-05 1.762511567E-06 8.665211224E-06 5.372400084E-06 1.066589943E-06
  1.706362808E-05-4.333693774E-06 1.736952578E-06 2.037874406E-06-1.494871045E-06
 -1.078339467E-05 1.770374219E-05-4.045681689E-06-1.136465423E-05 6.057278293E-07
 -3.926116193E-06-1.240702426E-05-1.783329698E-06 9.201058172E-06-2.583699430E-06
 -1.142763904E-06 8.343910369E-06 8.336944089E-06 4.647461081E-06 5.635610319E-06
 -7.786547640E-06 2.690197535E-06 1.002918292E-05 7.456771772E-06 1.769590404E-06
  1.213675496E+00-3.884880354E-01-1.070917880E+00
 ......END OF GEOMETRY SEARCH......
 CPU     0: STEP CPU TIME=     0.00 TOTAL CPU TIME=     3171.2 (   52.9 MIN)
 TOTAL WALL CLOCK TIME=     3210.4 SECONDS, CPU UTILIZATION IS  98.78%
               2991967  WORDS OF DYNAMIC MEMORY USED
 EXECUTION OF GAMESS TERMINATED NORMALLY Fri Jun 10 21:48:35 2016
 DDI: 44487344 bytes (42.4 MB / 5 MWords) used by master data server.

 ----------------------------------------
 CPU timing information for all processes
 ========================================
 0: 3166.667 + 4.606 = 3171.273
 1: 3164.702 + 4.388 = 3169.91
 2: 3165.412 + 4.527 = 3169.940
 3: 3162.502 + 4.475 = 3166.977
 4: 3167.512 + 4.576 = 3172.88
 5: 3165.572 + 4.507 = 3170.80
 6: 3168.900 + 4.393 = 3173.293
 7: 3167.246 + 4.612 = 3171.858
 8: 3166.748 + 4.678 = 3171.426
 9: 3167.367 + 4.541 = 3171.908
 10: 3170.159 + 4.513 = 3174.672
 11: 3167.492 + 4.570 = 3172.62
 12: 3168.193 + 4.474 = 3172.667
 13: 3167.305 + 4.545 = 3171.850
 14: 3166.815 + 4.367 = 3171.182
 15: 3166.281 + 3.421 = 3169.703
 16: 0.15 + 0.96 = 0.112
 17: 0.10 + 0.100 = 0.111
 18: 0.15 + 0.104 = 0.120
 19: 0.16 + 0.98 = 0.115
 20: 0.14 + 0.109 = 0.124
 21: 0.18 + 0.92 = 0.111
 22: 0.12 + 0.100 = 0.113
 23: 0.09 + 0.96 = 0.106
 24: 0.13 + 0.95 = 0.109
 25: 0.11 + 0.105 = 0.117
 26: 0.18 + 0.91 = 0.110
 27: 0.09 + 0.93 = 0.103
 28: 0.12 + 0.101 = 0.114
 29: 0.17 + 0.91 = 0.109
 30: 0.16 + 0.96 = 0.113
 31: 0.12 + 0.105 = 0.118
 ----------------------------------------
unset echo
----- accounting info -----
Files used on the master node node215 were:
-rw-r--r-- 1 fzahari quantum     1962 Jun 10 20:55 /local/scratch/fzahari/196839.share/ang_var-1560.F05
-rw-r--r-- 1 fzahari quantum 17178000 Jun 10 21:48 /local/scratch/fzahari/196839.share/ang_var-1560.F10
-rw-r--r-- 1 fzahari quantum        8 Jun 10 20:55 /local/scratch/fzahari/196839.share/ang_var-1560.nodes.mpd
ls: No match.
ls: No match.
ls: No match.
Fri Jun 10 21:48:37 CDT 2016
50669.745u 76.072s 53:34.89 1578.4%	0+0k 104+446616io 0pf+0w
