----- GAMESS execution script 'rungms' -----
This job is running on host node240
under operating system Linux at Thu Jun 9 23:54:50 CDT 2016
PBS has assigned the following compute nodes to this run:
node240
Available scratch disk space (Kbyte units) at beginning of the job is
Filesystem           1K-blocks      Used Available Use% Mounted on
/dev/sda7            2670838024   1348936 2533818304   1% /local
GAMESS temporary binary files will be written to /local/scratch/fzahari/196711.share
GAMESS supplementary output files will be written to /work1/quantum/fzahari/scr
Copying input file ang_var-1720.inp to your run's scratch directory...
cp ang_var-1720.inp /local/scratch/fzahari/196711.share/ang_var-1720.F05
unset echo
setenv I_MPI_WAIT_MODE enable
setenv I_MPI_PIN disable
setenv I_MPI_DEBUG 0
setenv I_MPI_STATS 0
setenv I_MPI_FABRICS dapl
setenv I_MPI_DAT_LIBRARY libdat2.so
unset echo
MPI kickoff will run GAMESS on 16 cores in 1 nodes.
The binary to be executed is /home/mschmidt/gamess/gamess.132.x
MPI will run 16 compute processes and 16 data servers,
    placing 16 of each process type onto each node.
The scratch disk space on each node is /local/scratch/fzahari/196711.share, with free space
Filesystem           1K-blocks      Used Available Use% Mounted on
/dev/sda7            2670838024   1348960 2533818280   1% /local
setenv I_MPI_HYDRA_ENV all
setenv I_MPI_PERHOST 32
unset echo
mpiexec.hydra -f /local/scratch/fzahari/196711.share/ang_var-1720.processes.mpd -n 32 /home/mschmidt/gamess/gamess.132.x
          ******************************************************
          *         GAMESS VERSION =  5 DEC 2014 (R1)          *
          *             FROM IOWA STATE UNIVERSITY             *
          * M.W.SCHMIDT, K.K.BALDRIDGE, J.A.BOATZ, S.T.ELBERT, *
          *   M.S.GORDON, J.H.JENSEN, S.KOSEKI, N.MATSUNAGA,   *
          *          K.A.NGUYEN, S.J.SU, T.L.WINDUS,           *
          *       TOGETHER WITH M.DUPUIS, J.A.MONTGOMERY       *
          *         J.COMPUT.CHEM.  14, 1347-1363(1993)        *
          **************** 64 BIT INTEL VERSION ****************

  SINCE 1993, STUDENTS AND POSTDOCS WORKING AT IOWA STATE UNIVERSITY
  AND ALSO IN THEIR VARIOUS JOBS AFTER LEAVING ISU HAVE MADE IMPORTANT
  CONTRIBUTIONS TO THE CODE:
     IVANA ADAMOVIC, CHRISTINE AIKENS, YURI ALEXEEV, POOJA ARORA,
     ANDREY ASADCHEV, ROB BELL, PRADIPTA BANDYOPADHYAY, JONATHAN BENTZ,
     BRETT BODE, KURT BRORSEN, CALEB CARLIN, GALINA CHABAN, WEI CHEN,
     CHEOL HO CHOI, PAUL DAY, ALBERT DEFUSCO, NUWAN DESILVA, TIM DUDLEY,
     DMITRI FEDOROV, GRAHAM FLETCHER, MARK FREITAG, KURT GLAESEMANN,
     DAN KEMP, GRANT MERRILL, NORIYUKI MINEZAWA, JONATHAN MULLIN,
     TAKESHI NAGATA, SEAN NEDD, HEATHER NETZLOFF, BOSILJKA NJEGIC, RYAN OLSON,
     MIKE PAK, SPENCER PRUITT, LUKE ROSKOP, JIM SHOEMAKER, LYUDMILA SLIPCHENKO,
     TONY SMITH, SAROM SOK, JIE SONG, TETSUYA TAKETSUGU, SIMON WEBB,
     PENG XU, SOOHAENG YOO, FEDERICO ZAHARIEV

  ADDITIONAL CODE HAS BEEN PROVIDED BY COLLABORATORS IN OTHER GROUPS:
     IOWA STATE UNIVERSITY:
          JOE IVANIC, AARON WEST, LAIMUTIS BYTAUTAS, KLAUS RUEDENBERG
     UNIVERSITY OF TOKYO: KIMIHIKO HIRAO, TAKAHITO NAKAJIMA,
          TAKAO TSUNEDA, MUNEAKI KAMIYA, SUSUMU YANAGISAWA,
          KIYOSHI YAGI, MAHITO CHIBA, SEIKEN TOKURA, NAOAKI KAWAKAMI
     UNIVERSITY OF AARHUS: FRANK JENSEN
     UNIVERSITY OF IOWA: VISVALDAS KAIRYS, HUI LI
     NATIONAL INST. OF STANDARDS AND TECHNOLOGY: WALT STEVENS, DAVID GARMER
     UNIVERSITY OF PISA: BENEDETTA MENNUCCI, JACOPO TOMASI
     UNIVERSITY OF MEMPHIS: HENRY KURTZ, PRAKASHAN KORAMBATH
     UNIVERSITY OF ALBERTA: TOBY ZENG, MARIUSZ KLOBUKOWSKI
     UNIVERSITY OF NEW ENGLAND: MARK SPACKMAN
     MIE UNIVERSITY: HIROAKI UMEDA
     NAT. INST. OF ADVANCED INDUSTRIAL SCIENCE AND TECHNOLOGY: KAZUO KITAURA
     MICHIGAN STATE UNIVERSITY:
          KAROL KOWALSKI, MARTA WLOCH, JEFFREY GOUR, JESSE LUTZ,
          WEI LI, PIOTR PIECUCH
     UNIVERSITY OF SILESIA: MONIKA MUSIAL, STANISLAW KUCHARSKI
     FACULTES UNIVERSITAIRES NOTRE-DAME DE LA PAIX:
          OLIVIER QUINET, BENOIT CHAMPAGNE
     UNIVERSITY OF CALIFORNIA - SANTA BARBARA: BERNARD KIRTMAN
     INSTITUTE FOR MOLECULAR SCIENCE:
          KAZUYA ISHIMURA, MICHIO KATOUDA, AND SHIGERU NAGASE
     UNIVERSITY OF NOTRE DAME: ANNA POMOGAEVA, DAN CHIPMAN
     KYUSHU UNIVERSITY:
          HARUYUKI NAKANO,
          FENG LONG GU, JACEK KORCHOWIEC, MARCIN MAKOWSKI, AND YURIKO AOKI,
          HIROTOSHI MORI AND EISAKU MIYOSHI
     PENNSYLVANIA STATE UNIVERSITY:
          TZVETELIN IORDANOV, CHET SWALINA, JONATHAN SKONE,
          SHARON HAMMES-SCHIFFER
     WASEDA UNIVERSITY:
          MASATO KOBAYASHI, TOMOKO AKAMA, TSUGUKI TOUMA,
          TAKESHI YOSHIKAWA, YASUHIRO IKABATA, HIROMI NAKAI
     NANJING UNIVERSITY: SHUHUA LI
     UNIVERSITY OF NEBRASKA:
          PEIFENG SU, DEJUN SI, NANDUN THELLAMUREGE, YALI WANG, HUI LI
     UNIVERSITY OF ZURICH: ROBERTO PEVERATI, KIM BALDRIDGE
     N. COPERNICUS UNIVERSITY AND JACKSON STATE UNIVERSITY:
          MARIA BARYSZ
     UNIVERSITY OF COPENHAGEN: CASPER STEINMANN
     TOKYO INSTITUTE OF TECHNOLOGY: HIROYA NAKATA
     NAGOYA UNIVERSITY: YOSHIO NISHIMOTO, STEPHAN IRLE


 PARALLEL VERSION RUNNING ON       16 PROCESSORS IN        1 NODES.

 EXECUTION OF GAMESS BEGUN Thu Jun  9 23:54:51 2016

            ECHO OF THE FIRST FEW INPUT CARDS -
 INPUT CARD> $ZMAT DLC=.T. AUTO=.T. $END                                                    
 INPUT CARD> $ZMAT IFZMAT(1)=2, 1 , 3 , 2  FVALUE(1)= 172.0 $END                            
 INPUT CARD> $CONTRL COORD=UNIQUE NZVAR= 39 $END                                            
 INPUT CARD> $CONTRL ICHARG=+3 MULT=1                                                       
 INPUT CARD>         MPLEVL=2                                                               
 INPUT CARD>         SCFTYP=RHF                                                             
 INPUT CARD>         MAXIT=200 ISPHER=1 ICUT=11                                             
 INPUT CARD>         RUNTYP=OPTIMIZE                                                        
 INPUT CARD>         PP=READ                                                                
 INPUT CARD>         $END                                                                   
 INPUT CARD> $SCF    DIRSCF=.T. FDIFF=.F. $END                                              
 INPUT CARD> $TRANS  DIRTRF=.T. $END                                                        
 INPUT CARD> $SYSTEM MWORDS=300 MEMDDI=300 $END                                             
 INPUT CARD> $GUESS  GUESS=HUCKEL $END                                                      
 INPUT CARD> $BASIS  BASNAM(1)=METAL,                                                       
 INPUT CARD>                   LIGP,                                                        
 INPUT CARD>                   LIGO,                                                        
 INPUT CARD>                   LIGC,                                                        
 INPUT CARD>                   LIGC,                                                        
 INPUT CARD>                   LIGC,                                                        
 INPUT CARD>                   LIGH,                                                        
 INPUT CARD>                   LIGH,                                                        
 INPUT CARD>                   LIGH,                                                        
 INPUT CARD>                   LIGH,                                                        
 INPUT CARD>                   LIGH,                                                        
 INPUT CARD>                   LIGH,                                                        
 INPUT CARD>                   LIGH,                                                        
 INPUT CARD>                   LIGH,                                                        
 INPUT CARD>                   LIGH                                                         
 INPUT CARD> $END                                                                           
 INPUT CARD> $DATA                                                                          
 INPUT CARD>                                                                                
 INPUT CARD> C1                                                                             
 INPUT CARD> LA 57.0 0.31435 0.88028 -4.02887                                               
 INPUT CARD> P 15.0 -0.226282341729 0.390070981308 -0.308910247408                          
 INPUT CARD> O 8.0 -0.10013 0.67027 -1.98246                                                
 INPUT CARD> C 6.0 -1.72702698335 1.17178331499 0.216799465469                              
 INPUT CARD> C 6.0 1.20952009799 1.12039098632 0.429202088872                               
 INPUT CARD> C 6.0 -0.272212289471 -1.36882143402 -0.0993550415135                          
 INPUT CARD> H 1.0 -1.69041542846 2.24817627562 0.0532511980822                             
 INPUT CARD> H 1.0 -1.81311225915 0.99418094297 1.29420933949                               
 INPUT CARD> H 1.0 -2.59509642665 0.728413329095 -0.269581498503                            
 INPUT CARD> H 1.0 2.12259407678 0.645776186625 0.0718032968075                             
 INPUT CARD> H 1.0 1.13339255719 0.942701012063 1.50735562918                               
 INPUT CARD> H 1.0 1.2343522578 2.1969784241 0.264750366919                                 
 INPUT CARD> H 1.0 0.646778591313 -1.83344772203 -0.45471653017                             
 INPUT CARD> H 1.0 -1.14617378269 -1.80203340717 -0.584331966732                            
 INPUT CARD> H 1.0 -0.353268865525 -1.55501891622 0.977005423201                            
 INPUT CARD> $END                                                                           
 INPUT CARD>!                                                                               
  300000000 WORDS OF MEMORY AVAILABLE

     BASIS OPTIONS
     -------------
     GBASIS=             IGAUSS=       0      POLAR=NONE    
     NDFUNC=       0     NFFUNC=       0     DIFFSP=       F
     NPFUNC=       0      DIFFS=       F     BASNAM=METAL   

 USING BASNAM FOR ATOM CUSTOMIZED BASIS CONSTRUCTION
     ----------------
     ATOM  BASIS NAME
     ----------------
       1   METAL   
       2   LIGP    
       3   LIGO    
       4   LIGC    
       5   LIGC    
       6   LIGC    
       7   LIGH    
       8   LIGH    
       9   LIGH    
      10   LIGH    
      11   LIGH    
      12   LIGH    
      13   LIGH    
      14   LIGH    
      15   LIGH    
 NOW LOCATING ALL   15 BASIS SETS IN YOUR INPUT FILE...
 FOUND BASIS SET  $METAL 
  SBKJC                        
                               
  $END                         
 FOUND BASIS SET  $LIGP  
  CCT                          
                               
  $END                         
 FOUND BASIS SET  $LIGO  
  CCT                          
                               
  $END                         
 FOUND BASIS SET  $LIGC  
  CCT                          
                               
  $END                         
 FOUND BASIS SET  $LIGH  
  CCT                          
                               
  $END                         
    5 UNIQUE ATOM CUSTOMIZED BASIS SETS WERE FOUND.

     SEARCHING FOR $MCP
     $MCP GROUP NOT FOUND


     RUN TITLE
     ---------
                                                                                 

 THE POINT GROUP OF THE MOLECULE IS C1      
 THE ORDER OF THE PRINCIPAL AXIS IS     0

 ATOM      ATOMIC                      COORDINATES (BOHR)
           CHARGE         X                   Y                   Z
 LA         57.0     0.5940353642        1.6634879925       -7.6134603402
 P          15.0    -0.4276116217        0.7371272704       -0.5837557224
 O           8.0    -0.1892182632        1.2666266378       -3.7463061816
 C           6.0    -3.2636077719        2.2143493823        0.4096915840
 C           6.0     2.2856615618        2.1172319633        0.8110743413
 C           6.0    -0.5144066376       -2.5866974364       -0.1877538040
 H           1.0    -3.1944219652        4.2484371330        0.1006301729
 H           1.0    -3.4262853548        1.8787295644        2.4457010224
 H           1.0    -4.9040211581        1.3765015978       -0.5094351635
 H           1.0     4.0111211883        1.2203400421        0.1356885560
 H           1.0     2.1418013696        1.7814466011        2.8484891052
 H           1.0     2.3325875396        4.1516872225        0.5003056486
 H           1.0     1.2222343123       -3.4647138074       -0.8592896441
 H           1.0    -2.1659543836       -3.4053493603       -1.1042273030
 H           1.0    -0.6675813558       -2.9385596574        1.8462725384

          INTERNUCLEAR DISTANCES (ANGS.)
          ------------------------------

                1 LA         2 P          3 O          4 C          5 C     

   1 LA      0.0000000    3.7908691    2.0984975 *  4.7199474    4.5533932  
   2 P       3.7908691    0.0000000    1.7015272 *  1.7719140 *  1.7719215 *
   3 O       2.0984975 *  1.7015272 *  0.0000000    2.7811961 *  2.7809902 *
   4 C       4.7199474    1.7719140 *  2.7811961 *  0.0000000    2.9446672 *
   5 C       4.5533932    1.7719215 *  2.7809902 *  2.9446672 *  0.0000000  
   6 C       4.5654792    1.7719271 *  2.7809334 *  2.9446752 *  2.9446701 *
   7 H       4.7490987    2.3931991 *  3.0270309    1.0893623 *  3.1341450  
   8 H       5.7336064    2.3351596 *  3.7115749    1.0953380 *  3.1465017  
   9 H       4.7560690    2.3931783 *  3.0269111    1.0893521 *  3.8880653  
  10 H       4.4877901    2.3932297 *  3.0267309    3.8880959    1.0893563 *
  11 H       5.5968314    2.3351526 *  3.7114161    3.1464287    1.0953466 *
  12 H       4.5842420    2.3932101 *  3.0268194    3.1341811    1.0893583 *
  13 H       4.4999333    2.3932259 *  3.0266277    3.8880972    3.1341910  
  14 H       4.6035614    2.3931943 *  3.0267563    3.1341327    3.8880727  
  15 H       5.6067089    2.3351829 *  3.7113913    3.1465179    3.1464609  

                6 C          7 H          8 H          9 H         10 H     

   1 LA      4.5654792    4.7490987    5.7336064    4.7560690    4.4877901  
   2 P       1.7719271 *  2.3931991 *  2.3351596 *  2.3931783 *  2.3932297 *
   3 O       2.7809334 *  3.0270309    3.7115749    3.0269111    3.0267309  
   4 C       2.9446752 *  1.0893623 *  1.0953380 *  1.0893521 *  3.8880959  
   5 C       2.9446701 *  3.1341450    3.1465017    3.8880653    1.0893563 *
   6 C       0.0000000    3.8880922    3.1464543    3.1341923    3.1341660  
   7 H       3.8880922    0.0000000    1.7684841 *  1.7978732 *  4.1360696  
   8 H       3.1464543    1.7684841 *  0.0000000    1.7684947 *  4.1358732  
   9 H       3.1341923    1.7978732 *  1.7684947 *  0.0000000    4.7307479  
  10 H       3.1341660    4.1360696    4.1358732    4.7307479    0.0000000  
  11 H       3.1464870    3.4340322    2.9546526 *  4.1358258    1.7684724 *
  12 H       3.8880893    2.9328517 *  3.4341735    4.1360454    1.7978961 *
  13 H       1.0893593 *  4.7307675    4.1358540    4.1360803    2.9328835 *
  14 H       1.0893502 *  4.1360500    3.4340267    2.9328494 *  4.1360765  
  15 H       1.0953500 *  4.1358888    2.9546880 *  3.4342150    3.4340628  

               11 H         12 H         13 H         14 H         15 H     

   1 LA      5.5968314    4.5842420    4.4999333    4.6035614    5.6067089  
   2 P       2.3351526 *  2.3932101 *  2.3932259 *  2.3931943 *  2.3351829 *
   3 O       3.7114161    3.0268194    3.0266277    3.0267563    3.7113913  
   4 C       3.1464287    3.1341811    3.8880972    3.1341327    3.1465179  
   5 C       1.0953466 *  1.0893583 *  3.1341910    3.8880727    3.1464609  
   6 C       3.1464870    3.8880893    1.0893593 *  1.0893502 *  1.0953500 *
   7 H       3.4340322    2.9328517 *  4.7307675    4.1360500    4.1358888  
   8 H       2.9546526 *  3.4341735    4.1358540    3.4340267    2.9546880 *
   9 H       4.1358258    4.1360454    4.1360803    2.9328494 *  3.4342150  
  10 H       1.7684724 *  1.7978961 *  2.9328835 *  4.1360765    3.4340628  
  11 H       0.0000000    1.7684662 *  3.4341698    4.1358369    2.9546638 *
  12 H       1.7684662 *  0.0000000    4.1360864    4.7307442    4.1358593  
  13 H       3.4341698    4.1360864    0.0000000    1.7979058 *  1.7684584 *
  14 H       4.1358369    4.7307442    1.7979058 *  0.0000000    1.7684708 *
  15 H       2.9546638 *  4.1358593    1.7684584 *  1.7684708 *  0.0000000  

  * ... LESS THAN  3.000


     ATOMIC BASIS SET
     ----------------
 THE CONTRACTED PRIMITIVE FUNCTIONS HAVE BEEN UNNORMALIZED
 THE CONTRACTED BASIS FUNCTIONS ARE NOW NORMALIZED TO UNITY

  SHELL TYPE  PRIMITIVE        EXPONENT          CONTRACTION COEFFICIENT(S)

 LA        

      1   L       1             9.1730000   -0.054833023521   -0.009797991527
      1   L       2             3.1200000    0.676604290237    0.231261800020
      1   L       3             2.1040000   -1.034429443730   -0.601214480110
      1   L       4             1.3200000   -0.518907222591    0.195188831214
      1   L       5             0.4960000    1.631603699894    1.076136069429

      2   D       6             1.2380000   -0.053797021791
      2   D       7             0.6061000    0.380144153981
      2   D       8             0.2518000    0.720349291785

      3   D       9             0.0978700    1.000000000000

      4   L      10             0.6182000   -0.107095028128   -0.051868986063
      4   L      11             0.0454600    1.033448271434    1.008107729120

      5   L      12             0.0177500    1.000000000000    1.000000000000

      6   L      13             0.2004000    1.000000000000    1.000000000000

      7   D      14             0.0353600    1.000000000000

 P         

      8   S      15        312400.0000000    0.000057689641
      8   S      16         46800.0000000    0.000448246591
      8   S      17         10650.0000000    0.002349131061
      8   S      18          3018.0000000    0.009781571802
      8   S      19           986.8000000    0.034142936511
      8   S      20           357.4000000    0.100192955985
      8   S      21           139.6000000    0.234346168617
      8   S      22            57.6300000    0.382391849918
      8   S      23            24.6000000    0.318052941833
      8   S      24            10.1200000    0.070770999093
      8   S      25             4.2830000   -0.001817789630
      8   S      26             1.8050000    0.002161561737
      8   S      27             0.2782000    0.000432249354

      9   S      28        312400.0000000   -0.000016380204
      9   S      29         46800.0000000   -0.000127233535
      9   S      30         10650.0000000   -0.000668625166
      9   S      31          3018.0000000   -0.002795303744
      9   S      32           986.8000000   -0.009928227435
      9   S      33           357.4000000   -0.030244566456
      9   S      34           139.6000000   -0.077884705328
      9   S      35            57.6300000   -0.156724571545
      9   S      36            24.6000000   -0.198042753651
      9   S      37            10.1200000    0.037971251521
      9   S      38             4.2830000    0.552751544147
      9   S      39             1.8050000    0.542611452452
      9   S      40             0.2782000   -0.009675942874

     10   S      41        312400.0000000    0.000006865735
     10   S      42         46800.0000000    0.000053281983
     10   S      43         10650.0000000    0.000280421002
     10   S      44          3018.0000000    0.001170789768
     10   S      45           986.8000000    0.004173591138
     10   S      46           357.4000000    0.012720496749
     10   S      47           139.6000000    0.033152766352
     10   S      48            57.6300000    0.067671246836
     10   S      49            24.6000000    0.089831018862
     10   S      50            10.1200000   -0.020305232360
     10   S      51             4.2830000   -0.313280408979
     10   S      52             1.8050000   -0.563687905527
     10   S      53             0.2782000    1.117494073734

     11   S      54             0.6158000    1.000000000000

     12   S      55             0.1055000    1.000000000000

     13   P      56           504.9000000    0.002433660431
     13   P      57           119.4000000    0.019305559477
     13   P      58            37.9600000    0.088473106893
     13   P      59            13.9500000    0.254701981099
     13   P      60             5.4570000    0.440199242653
     13   P      61             2.1770000    0.383632006272
     13   P      62             0.2877000   -0.003946337074

     14   P      63           504.9000000   -0.000954298933
     14   P      64           119.4000000   -0.007664025747
     14   P      65            37.9600000   -0.035465925259
     14   P      66            13.9500000   -0.106164716437
     14   P      67             5.4570000   -0.187210586037
     14   P      68             2.1770000   -0.181495819791
     14   P      69             0.2877000    0.991672644618

     15   P      70             0.8010000    1.000000000000

     16   P      71             0.0971400    1.000000000000

     17   D      72             0.6480000    1.000000000000

     18   D      73             0.2180000    1.000000000000

     19   F      74             0.4520000    1.000000000000

     20   D      75             3.1200000    1.000000000000

 O         

     21   S      76         15330.0000000    0.000520198307
     21   S      77          2299.0000000    0.004023344781
     21   S      78           522.4000000    0.020729083329
     21   S      79           147.3000000    0.081082327080
     21   S      80            47.5500000    0.236226352118
     21   S      81            16.7600000    0.443518209420
     21   S      82             6.2070000    0.358670588689
     21   S      83             0.6882000   -0.008349797237

     22   S      84         15330.0000000   -0.000197236012
     22   S      85          2299.0000000   -0.001535010700
     22   S      86           522.4000000   -0.007951183914
     22   S      87           147.3000000   -0.032113452892
     22   S      88            47.5500000   -0.100269643049
     22   S      89            16.7600000   -0.234047111838
     22   S      90             6.2070000   -0.301410927756
     22   S      91             0.6882000    1.034919649508

     23   S      92             1.7520000    1.000000000000

     24   S      93             0.2384000    1.000000000000

     25   P      94            34.4600000    0.041163489568
     25   P      95             7.7490000    0.257762835858
     25   P      96             2.2800000    0.802419274427

     26   P      97             0.7156000    1.000000000000

     27   P      98             0.2140000    1.000000000000

     28   D      99             2.3140000    1.000000000000

     29   D     100             0.6450000    1.000000000000

     30   F     101             1.4280000    1.000000000000

 C         

     31   S     102          8236.0000000    0.000542430189
     31   S     103          1235.0000000    0.004196427901
     31   S     104           280.8000000    0.021540914108
     31   S     105            79.2700000    0.083614949614
     31   S     106            25.5900000    0.239871618922
     31   S     107             8.9970000    0.443751820060
     31   S     108             3.3190000    0.353579696469
     31   S     109             0.3643000   -0.009176366076

     32   S     110          8236.0000000   -0.000196392234
     32   S     111          1235.0000000   -0.001525950274
     32   S     112           280.8000000   -0.007890449028
     32   S     113            79.2700000   -0.031514870532
     32   S     114            25.5900000   -0.096910008320
     32   S     115             8.9970000   -0.220541526288
     32   S     116             3.3190000   -0.296069112937
     32   S     117             0.3643000    1.040503432950

     33   S     118             0.9059000    1.000000000000

     34   S     119             0.1285000    1.000000000000

     35   P     120            18.7100000    0.039426387165
     35   P     121             4.1330000    0.244088984924
     35   P     122             1.2000000    0.815492008943

     36   P     123             0.3827000    1.000000000000

     37   P     124             0.1209000    1.000000000000

     38   D     125             1.0970000    1.000000000000

     39   D     126             0.3180000    1.000000000000

     40   F     127             0.7610000    1.000000000000

 C         

     41   S     128          8236.0000000    0.000542430189
     41   S     129          1235.0000000    0.004196427901
     41   S     130           280.8000000    0.021540914108
     41   S     131            79.2700000    0.083614949614
     41   S     132            25.5900000    0.239871618922
     41   S     133             8.9970000    0.443751820060
     41   S     134             3.3190000    0.353579696469
     41   S     135             0.3643000   -0.009176366076

     42   S     136          8236.0000000   -0.000196392234
     42   S     137          1235.0000000   -0.001525950274
     42   S     138           280.8000000   -0.007890449028
     42   S     139            79.2700000   -0.031514870532
     42   S     140            25.5900000   -0.096910008320
     42   S     141             8.9970000   -0.220541526288
     42   S     142             3.3190000   -0.296069112937
     42   S     143             0.3643000    1.040503432950

     43   S     144             0.9059000    1.000000000000

     44   S     145             0.1285000    1.000000000000

     45   P     146            18.7100000    0.039426387165
     45   P     147             4.1330000    0.244088984924
     45   P     148             1.2000000    0.815492008943

     46   P     149             0.3827000    1.000000000000

     47   P     150             0.1209000    1.000000000000

     48   D     151             1.0970000    1.000000000000

     49   D     152             0.3180000    1.000000000000

     50   F     153             0.7610000    1.000000000000

 C         

     51   S     154          8236.0000000    0.000542430189
     51   S     155          1235.0000000    0.004196427901
     51   S     156           280.8000000    0.021540914108
     51   S     157            79.2700000    0.083614949614
     51   S     158            25.5900000    0.239871618922
     51   S     159             8.9970000    0.443751820060
     51   S     160             3.3190000    0.353579696469
     51   S     161             0.3643000   -0.009176366076

     52   S     162          8236.0000000   -0.000196392234
     52   S     163          1235.0000000   -0.001525950274
     52   S     164           280.8000000   -0.007890449028
     52   S     165            79.2700000   -0.031514870532
     52   S     166            25.5900000   -0.096910008320
     52   S     167             8.9970000   -0.220541526288
     52   S     168             3.3190000   -0.296069112937
     52   S     169             0.3643000    1.040503432950

     53   S     170             0.9059000    1.000000000000

     54   S     171             0.1285000    1.000000000000

     55   P     172            18.7100000    0.039426387165
     55   P     173             4.1330000    0.244088984924
     55   P     174             1.2000000    0.815492008943

     56   P     175             0.3827000    1.000000000000

     57   P     176             0.1209000    1.000000000000

     58   D     177             1.0970000    1.000000000000

     59   D     178             0.3180000    1.000000000000

     60   F     179             0.7610000    1.000000000000

 H         

     61   S     180            33.8700000    0.025494863235
     61   S     181             5.0950000    0.190362765893
     61   S     182             1.1590000    0.852162022245

     62   S     183             0.3258000    1.000000000000

     63   S     184             0.1027000    1.000000000000

     64   P     185             1.4070000    1.000000000000

     65   P     186             0.3880000    1.000000000000

     66   D     187             1.0570000    1.000000000000

 H         

     67   S     188            33.8700000    0.025494863235
     67   S     189             5.0950000    0.190362765893
     67   S     190             1.1590000    0.852162022245

     68   S     191             0.3258000    1.000000000000

     69   S     192             0.1027000    1.000000000000

     70   P     193             1.4070000    1.000000000000

     71   P     194             0.3880000    1.000000000000

     72   D     195             1.0570000    1.000000000000

 H         

     73   S     196            33.8700000    0.025494863235
     73   S     197             5.0950000    0.190362765893
     73   S     198             1.1590000    0.852162022245

     74   S     199             0.3258000    1.000000000000

     75   S     200             0.1027000    1.000000000000

     76   P     201             1.4070000    1.000000000000

     77   P     202             0.3880000    1.000000000000

     78   D     203             1.0570000    1.000000000000

 H         

     79   S     204            33.8700000    0.025494863235
     79   S     205             5.0950000    0.190362765893
     79   S     206             1.1590000    0.852162022245

     80   S     207             0.3258000    1.000000000000

     81   S     208             0.1027000    1.000000000000

     82   P     209             1.4070000    1.000000000000

     83   P     210             0.3880000    1.000000000000

     84   D     211             1.0570000    1.000000000000

 H         

     85   S     212            33.8700000    0.025494863235
     85   S     213             5.0950000    0.190362765893
     85   S     214             1.1590000    0.852162022245

     86   S     215             0.3258000    1.000000000000

     87   S     216             0.1027000    1.000000000000

     88   P     217             1.4070000    1.000000000000

     89   P     218             0.3880000    1.000000000000

     90   D     219             1.0570000    1.000000000000

 H         

     91   S     220            33.8700000    0.025494863235
     91   S     221             5.0950000    0.190362765893
     91   S     222             1.1590000    0.852162022245

     92   S     223             0.3258000    1.000000000000

     93   S     224             0.1027000    1.000000000000

     94   P     225             1.4070000    1.000000000000

     95   P     226             0.3880000    1.000000000000

     96   D     227             1.0570000    1.000000000000

 H         

     97   S     228            33.8700000    0.025494863235
     97   S     229             5.0950000    0.190362765893
     97   S     230             1.1590000    0.852162022245

     98   S     231             0.3258000    1.000000000000

     99   S     232             0.1027000    1.000000000000

    100   P     233             1.4070000    1.000000000000

    101   P     234             0.3880000    1.000000000000

    102   D     235             1.0570000    1.000000000000

 H         

    103   S     236            33.8700000    0.025494863235
    103   S     237             5.0950000    0.190362765893
    103   S     238             1.1590000    0.852162022245

    104   S     239             0.3258000    1.000000000000

    105   S     240             0.1027000    1.000000000000

    106   P     241             1.4070000    1.000000000000

    107   P     242             0.3880000    1.000000000000

    108   D     243             1.0570000    1.000000000000

 H         

    109   S     244            33.8700000    0.025494863235
    109   S     245             5.0950000    0.190362765893
    109   S     246             1.1590000    0.852162022245

    110   S     247             0.3258000    1.000000000000

    111   S     248             0.1027000    1.000000000000

    112   P     249             1.4070000    1.000000000000

    113   P     250             0.3880000    1.000000000000

    114   D     251             1.0570000    1.000000000000

 TOTAL NUMBER OF BASIS SET SHELLS             =  114
 NUMBER OF CARTESIAN GAUSSIAN BASIS FUNCTIONS =  354
 NOTE: THIS RUN WILL RESTRICT THE MO VARIATION SPACE TO SPHERICAL HARMONICS.
 THE NUMBER OF ORBITALS KEPT IN THE VARIATIONAL SPACE WILL BE PRINTED LATER.
 NUMBER OF ELECTRONS                          =  104
 CHARGE OF MOLECULE                           =    3
 SPIN MULTIPLICITY                            =    1
 NUMBER OF OCCUPIED ORBITALS (ALPHA)          =   52
 NUMBER OF OCCUPIED ORBITALS (BETA )          =   52
 TOTAL NUMBER OF ATOMS                        =   15
 THE NUCLEAR REPULSION ENERGY IS      663.7939790272
 NOTE THIS RUN IS USING CORE POTENTIALS, AND THE NUMBER OF ELECTRONS,
 OCCUPIED ORBITALS, AND NUCLEAR REPULSION ENERGY WILL BE ADJUSTED BELOW
 AFTER REMOVAL OF THE CORE CHARGES.

     $CONTRL OPTIONS
     ---------------
 SCFTYP=RHF          RUNTYP=OPTIMIZE     EXETYP=RUN     
 MPLEVL=       2     CITYP =NONE         CCTYP =NONE         VBTYP =NONE    
 DFTTYP=NONE         TDDFT =NONE    
 MULT  =       1     ICHARG=       3     NZVAR =      39     COORD =UNIQUE  
 PP    =READ         RELWFN=NONE         LOCAL =NONE         NUMGRD=       F
 ISPHER=       1     NOSYM =       0     MAXIT =     200     UNITS =ANGS    
 PLTORB=       F     MOLPLT=       F     AIMPAC=       F     FRIEND=        
 NPRINT=       7     IREST =       0     GEOM  =INPUT   
 NORMF =       0     NORMP =       0     ITOL  =      20     ICUT  =      11
 INTTYP=BEST         GRDTYP=BEST         QMTTOL= 1.0E-06

     $SYSTEM OPTIONS
     ---------------
  REPLICATED MEMORY=   300000000 WORDS (ON EVERY NODE).
 DISTRIBUTED MEMDDI=         300 MILLION WORDS IN AGGREGATE,
 MEMDDI DISTRIBUTED OVER  16 PROCESSORS IS    18750000 WORDS/PROCESSOR.
 TOTAL MEMORY REQUESTED ON EACH PROCESSOR=   318750000 WORDS.
 TIMLIM=      525600.00 MINUTES, OR     365.0 DAYS.
 PARALL= T  BALTYP=  DLB     KDIAG=    0  COREFL= F
 MXSEQ2=     300 MXSEQ3=     150  mem10=         0

          --------------
          ECP POTENTIALS
          --------------

 PARAMETERS FOR "LA-ECP  " ON ATOM    1 WITH ZCORE  46 AND LMAX  4 ARE
 FOR L= 4      COEFF    N           ZETA
    1       -2.85665    1        1.42345
 FOR L= 0      COEFF    N           ZETA
    1        8.85347    0       22.29739
    2      -68.41778    2        1.64320
    3      110.12463    2        1.85122
 FOR L= 1      COEFF    N           ZETA
    1        2.98675    0        1.77635
    2      -35.51815    2        3.98941
    3       53.65423    2        2.47524
 FOR L= 2      COEFF    N           ZETA
    1        1.67298    0        1.52169
    2       18.46625    2        1.52182
 FOR L= 3      COEFF    N           ZETA
    1       -4.64430    1        2.67762
    2      -14.43101    1       10.06608

 THE ECP RUN REMOVES   46 CORE ELECTRONS, AND THE SAME NUMBER OF PROTONS.
 NUMBER OF ELECTRONS KEPT IN THE CALCULATION IS =   58
 NUMBER OF OCCUPIED ORBITALS (ALPHA) KEPT IS    =   29
 NUMBER OF OCCUPIED ORBITALS (BETA ) KEPT IS    =   29
 THE ADJUSTED NUCLEAR REPULSION ENERGY=      335.0552467634
          ECP ANGULAR INTS.........     0.02 SECONDS

          ----------------
          PROPERTIES INPUT
          ----------------

     MOMENTS            FIELD           POTENTIAL          DENSITY
 IEMOM =       1   IEFLD =       0   IEPOT =       0   IEDEN =       0
 WHERE =COMASS     WHERE =NUCLEI     WHERE =NUCLEI     WHERE =NUCLEI  
 OUTPUT=BOTH       OUTPUT=BOTH       OUTPUT=BOTH       OUTPUT=BOTH    
 IEMINT=       0   IEFINT=       0                     IEDINT=       0
                                                       MORB  =       0
          EXTRAPOLATION IN EFFECT
          SOSCF IN EFFECT
 ORBITAL PRINTING OPTION: NPREO=     1   354     2     1

     -------------------------------
     INTEGRAL TRANSFORMATION OPTIONS
     -------------------------------
     NWORD  =            0
     CUTOFF = 1.0E-09     MPTRAN =       0
     DIRTRF =       T     AOINTS =DUP     

          ----------------------
          INTEGRAL INPUT OPTIONS
          ----------------------
 NOPK  =       1 NORDER=       0 SCHWRZ=       T

          -----------------------
          MP2 CONTROL INFORMATION
          -----------------------
          NACORE =       13  NBCORE =       13
          LMOMP2 =        F  AOINTS = DUP     
          METHOD =        2  NWORD  =               0
          MP2PRP =        F  OSPT   = NONE    
          CUTOFF = 1.00E-09  CPHFBS = BASISAO 
          CODE   = DDI     

          NUMBER OF CORE -A-  ORBITALS =    13
          NUMBER OF CORE -B-  ORBITALS =    13
          NUMBER OF OCC. -A-  ORBITALS =    29
          NUMBER OF OCC. -B-  ORBITALS =    29
          NUMBER OF MOLECULAR ORBITALS =   354
          NUMBER OF   BASIS  FUNCTIONS =   354

 
 
 -----------------------------------------------
  STATISTICS ON AUTOMATIC COORDINATE GENERATION 
 -----------------------------------------------
  NUMBER OF USER SPECIFIED BONDS                              0
  NUMBER OF BONDS                                            14
  NUMBER OF ANGLES                                           25
  NUMBER OF TORSIONS                                         30
  NUMBER OF EXTRA COORD.                                      0
  NUMBER OF EXTRA COORD. FOR CONSTRAINTS                      0
  NUMBER OF CONSTRAINED COORD.                                1
 
  TOTAL NUMBER OF PRIMITIVES                                 69
 -----------------------------------------------

   --- ENCODED Z MATRIX ---
 COORD  TYPE   I   J   K   L   M   N
    1      2    1   3   2
    2      1    1   3
    3      1    2   4
    4      1    2   3
    5      1    2   6
    6      1    2   5
    7      1    4   8
    8      1    4   7
    9      1    4   9
   10      1    5  12
   11      1    5  11
   12      1    5  10
   13      1    6  15
   14      1    6  14
   15      1    6  13
   16      2    2   5  11
   17      2    2   4   8
   18      2    2   6  13
   19      2    2   6  14
   20      2    2   4   9
   21      2    2   5  12
   22      2    2   5  10
   23      2    2   4   7
   24      2    2   6  15
   25      2    3   2   4
   26      2    3   2   5
   27      2    3   2   6
   28      2    4   2   6
   29      2    4   2   5
   30      2    5   2   6
   31      2    7   4   9
   32      2    7   4   8
   33      2    8   4   9
   34      2   10   5  11
   35      2   10   5  12
   36      2   11   5  12
   37      2   13   6  14
   38      2   13   6  15
   39      2   14   6  15
   40      3    1   3   2   5
   41      3    1   3   2   4
   42      3    1   3   2   6
   43      3    3   2   4   8
   44      3    3   2   6  15
   45      3    3   2   6  14
   46      3    3   2   4   7
   47      3    3   2   5  10
   48      3    3   2   6  13
   49      3    3   2   5  11
   50      3    3   2   5  12
   51      3    3   2   4   9
   52      3    4   2   6  15
   53      3    4   2   6  14
   54      3    4   2   5  10
   55      3    4   2   6  13
   56      3    4   2   5  12
   57      3    4   2   5  11
   58      3    5   2   6  15
   59      3    5   2   6  14
   60      3    5   2   4   7
   61      3    5   2   6  13
   62      3    5   2   4   9
   63      3    5   2   4   8
   64      3    6   2   4   7
   65      3    6   2   5  10
   66      3    6   2   5  11
   67      3    6   2   5  12
   68      3    6   2   4   9
   69      3    6   2   4   8

          INDEP./SYM. INTERNAL COORDINATES
          --------------------------------
 CRD  1=   1.0000 (  1)
 CRD  2=   0.1040 ( 16) -0.1330 ( 20) -0.1011 ( 22)  0.1291 ( 23) -0.1121 ( 24)
          -0.2996 ( 26)  0.3228 ( 27) -0.4179 ( 28)  0.4503 ( 29) -0.1463 ( 40)
           0.2116 ( 41) -0.1206 ( 42)  0.1183 ( 46)  0.1141 ( 51) -0.1362 ( 53)
          -0.1224 ( 56)  0.1615 ( 58)  0.1014 ( 59)  0.1609 ( 61)  0.1534 ( 65)
           0.1636 ( 66) -0.1026 ( 69)
 CRD  3=  -0.3326 (  3)  0.1506 (  5)  0.1881 (  6)  0.2272 ( 18) -0.1468 ( 19)
          -0.1239 ( 21)  0.2232 ( 22) -0.2365 ( 28) -0.1895 ( 29)  0.4176 ( 30)
           0.2327 ( 40) -0.2507 ( 42)  0.1744 ( 44) -0.1619 ( 49) -0.1271 ( 59)
          -0.1016 ( 60) -0.1232 ( 61) -0.1014 ( 62) -0.1073 ( 63)  0.1117 ( 64)
           0.1303 ( 65)  0.1346 ( 67)  0.1119 ( 68)  0.1060 ( 69)
 CRD  4=   0.3570 (  5) -0.3314 (  6)  0.2032 ( 19)  0.1474 ( 20) -0.2102 ( 21)
          -0.1676 ( 23) -0.2271 ( 26)  0.2448 ( 27)  0.1029 ( 28) -0.1109 ( 29)
           0.1074 ( 35) -0.1157 ( 37) -0.1966 ( 41)  0.2660 ( 43) -0.1162 ( 44)
          -0.1206 ( 45)  0.2064 ( 46) -0.1459 ( 49) -0.1415 ( 50)  0.2023 ( 51)
           0.1281 ( 54)  0.1172 ( 55) -0.1361 ( 60) -0.1402 ( 62) -0.1319 ( 64)
          -0.1360 ( 68)
 CRD  5=   0.3922 (  3)  0.4024 (  5)  0.4032 (  6)  0.2726 ( 16)  0.2723 ( 17)
           0.2726 ( 24) -0.1179 ( 32) -0.1179 ( 33) -0.1208 ( 34) -0.1204 ( 36)
          -0.1206 ( 38) -0.1202 ( 39)  0.1203 ( 54) -0.1205 ( 55)  0.1171 ( 59)
          -0.1197 ( 62)  0.1199 ( 64) -0.1171 ( 67)
 CRD  6=   0.1941 (  2)  0.2811 (  3)  0.3397 (  4)  0.2229 (  5)  0.2184 (  6)
          -0.2238 ( 16) -0.2285 ( 17)  0.2007 ( 18)  0.1944 ( 19)  0.2242 ( 20)
           0.1926 ( 21)  0.1984 ( 22)  0.2246 ( 23) -0.2242 ( 24) -0.1772 ( 31)
          -0.1530 ( 35) -0.1548 ( 37) -0.1353 ( 54)  0.1360 ( 55) -0.1178 ( 59)
           0.1272 ( 62) -0.1285 ( 64)  0.1184 ( 67)
 CRD  7=   0.3565 (  3) -0.1725 (  5) -0.2136 (  6) -0.1013 ( 14) -0.1241 ( 16)
           0.2990 ( 17)  0.3309 ( 18) -0.3983 ( 19) -0.3763 ( 21)  0.3004 ( 22)
          -0.1562 ( 32) -0.1379 ( 33)  0.1935 ( 36)  0.1866 ( 39)
 CRD  8=   0.2831 (  5) -0.2628 (  6)  0.1063 (  8) -0.1054 (  9) -0.2938 ( 16)
           0.1544 ( 18) -0.1965 ( 19) -0.3997 ( 20)  0.2397 ( 21) -0.2006 ( 22)
           0.4028 ( 23)  0.3166 ( 24) -0.1310 ( 32)  0.1497 ( 33)  0.1975 ( 34)
          -0.1912 ( 38)
 CRD  9=   0.1025 (  2)  0.1058 (  3)  0.1565 (  4)  0.3512 ( 16) -0.4395 ( 17)
          -0.1089 ( 18) -0.2300 ( 19)  0.2520 ( 20) -0.2588 ( 21) -0.1461 ( 22)
           0.2607 ( 23)  0.2944 ( 24) -0.2071 ( 31)  0.1724 ( 35)  0.1452 ( 37)
           0.1175 ( 53) -0.1207 ( 56)
 CRD 10=   0.3562 ( 18) -0.3799 ( 19)  0.3765 ( 20)  0.3784 ( 21) -0.3565 ( 22)
          -0.3748 ( 23)  0.1330 ( 32) -0.1326 ( 33)  0.1321 ( 34) -0.1266 ( 36)
          -0.1326 ( 38)  0.1267 ( 39)
 CRD 11=   0.1177 ( 11) -0.1073 ( 12) -0.1268 ( 13)  0.1038 ( 15)  0.4223 ( 16)
           0.3421 ( 18)  0.1193 ( 19) -0.2186 ( 20) -0.3497 ( 22)  0.1854 ( 23)
          -0.4550 ( 24)  0.1934 ( 35) -0.1380 ( 36) -0.2084 ( 37)  0.1352 ( 39)
 CRD 12=   0.3812 (  2)  0.6029 (  4)  0.1510 (  7)  0.1111 ( 16)  0.3805 ( 17)
          -0.1816 ( 18) -0.1652 ( 20) -0.1666 ( 22) -0.1803 ( 23)  0.1304 ( 24)
           0.1133 ( 25)  0.1749 ( 31) -0.1023 ( 33)
 CRD 13=  -0.1240 (  2)  0.2058 (  3) -0.2259 (  4) -0.1154 (  6)  0.1069 ( 10)
          -0.1044 ( 11)  0.1033 ( 14) -0.1509 ( 16)  0.1041 ( 17) -0.1417 ( 18)
           0.1498 ( 19)  0.1339 ( 21) -0.1367 ( 22) -0.1326 ( 24)  0.2470 ( 25)
          -0.1612 ( 26) -0.1318 ( 27) -0.1550 ( 28) -0.1211 ( 29)  0.3165 ( 30)
          -0.1030 ( 32) -0.1136 ( 33)  0.1577 ( 34)  0.1488 ( 38)  0.1049 ( 40)
          -0.1131 ( 42)  0.1715 ( 52)  0.1753 ( 53) -0.1438 ( 54)  0.1486 ( 55)
          -0.1768 ( 56) -0.1692 ( 57)  0.1416 ( 58)  0.1454 ( 59) -0.1389 ( 60)
           0.1187 ( 61) -0.1118 ( 63) -0.1214 ( 66) -0.1291 ( 67)  0.1178 ( 68)
 CRD 14=  -0.2067 ( 43) -0.2107 ( 44) -0.1818 ( 45) -0.1782 ( 46) -0.1825 ( 47)
          -0.1822 ( 48) -0.2111 ( 49) -0.1821 ( 50) -0.1782 ( 51) -0.2103 ( 52)
          -0.1814 ( 53) -0.1821 ( 54) -0.1818 ( 55) -0.1817 ( 56) -0.2106 ( 57)
          -0.2106 ( 58) -0.1817 ( 59) -0.1788 ( 60) -0.1821 ( 61) -0.1788 ( 62)
          -0.2073 ( 63) -0.1788 ( 64) -0.1824 ( 65) -0.2109 ( 66) -0.1820 ( 67)
          -0.1787 ( 68) -0.2073 ( 69)
 CRD 15=  -0.1946 ( 10) -0.1431 ( 12)  0.2034 ( 14)  0.1605 ( 15)  0.1009 ( 39)
           0.2934 ( 43) -0.1267 ( 44) -0.1026 ( 45)  0.2767 ( 46) -0.1708 ( 47)
          -0.1412 ( 48) -0.1593 ( 49) -0.1349 ( 50)  0.2795 ( 51) -0.1245 ( 54)
          -0.1014 ( 55) -0.1130 ( 57) -0.1081 ( 58)  0.2102 ( 60) -0.1225 ( 61)
           0.2129 ( 62)  0.2268 ( 63)  0.2117 ( 64) -0.1440 ( 65) -0.1325 ( 66)
          -0.1082 ( 67)  0.2145 ( 68)  0.2284 ( 69)
 CRD 16=  -0.4260 (  7) -0.3579 (  8) -0.3515 (  9)  0.2428 ( 10)  0.2388 ( 11)
           0.1594 ( 12)  0.1914 ( 13)  0.2063 ( 14)  0.1166 ( 15)  0.1311 ( 17)
          -0.1145 ( 18)  0.1754 ( 20) -0.1311 ( 22)  0.1702 ( 23) -0.2019 ( 31)
          -0.1387 ( 32) -0.1416 ( 33)  0.1129 ( 35)
 CRD 17=  -0.2460 ( 10) -0.3598 ( 11) -0.3108 ( 12)  0.3874 ( 13)  0.2737 ( 14)
           0.3258 ( 15)  0.1029 ( 16) -0.1334 ( 18) -0.1686 ( 19)  0.1622 ( 21)
           0.1183 ( 22) -0.1108 ( 24) -0.1662 ( 35) -0.1224 ( 36)  0.1789 ( 37)
           0.1100 ( 38)  0.1286 ( 39) -0.1123 ( 60) -0.1129 ( 62) -0.1092 ( 63)
          -0.1110 ( 64) -0.1116 ( 68) -0.1079 ( 69)
 CRD 18=  -0.1016 (  3) -0.2687 (  7) -0.3088 (  8) -0.3089 (  9) -0.3009 ( 10)
          -0.2644 ( 11) -0.2994 ( 12) -0.2647 ( 13) -0.3015 ( 14) -0.3000 ( 15)
           0.1118 ( 16)  0.1148 ( 17)  0.1009 ( 18)  0.1009 ( 19)  0.1030 ( 20)
           0.1007 ( 21)  0.1007 ( 22)  0.1030 ( 23)  0.1120 ( 24) -0.1098 ( 31)
          -0.1075 ( 32) -0.1075 ( 33) -0.1047 ( 34) -0.1076 ( 35) -0.1048 ( 36)
          -0.1078 ( 37) -0.1049 ( 38) -0.1050 ( 39)
 CRD 19=  -0.2048 (  3)  0.1219 (  6) -0.2445 (  8) -0.2656 (  9)  0.2771 ( 12)
           0.2592 ( 15) -0.1278 ( 25)  0.1064 ( 28) -0.2055 ( 30)  0.2034 ( 44)
           0.1890 ( 45) -0.1928 ( 47)  0.2054 ( 48) -0.1887 ( 49) -0.1731 ( 50)
           0.1449 ( 52)  0.1305 ( 53) -0.1315 ( 54)  0.1469 ( 55) -0.1118 ( 56)
          -0.1274 ( 57)  0.1763 ( 58)  0.1620 ( 59)  0.1783 ( 61) -0.1748 ( 65)
          -0.1707 ( 66) -0.1551 ( 67)
 CRD 20=   0.1485 (  8) -0.1781 (  9)  0.4100 ( 11) -0.2962 ( 12) -0.4420 ( 13)
           0.1262 ( 14)  0.2926 ( 15) -0.2062 ( 35)  0.1634 ( 36)  0.2223 ( 37)
          -0.1612 ( 39) -0.1275 ( 45)  0.1034 ( 47)  0.1136 ( 48) -0.1202 ( 50)
          -0.1309 ( 53)  0.1010 ( 54)  0.1102 ( 55) -0.1226 ( 56) -0.1200 ( 59)
           0.1211 ( 61)  0.1111 ( 65) -0.1125 ( 67)
 CRD 21=  -0.4246 (  7)  0.1928 (  8)  0.1620 (  9) -0.3223 ( 10)  0.2948 ( 11)
           0.2435 ( 13) -0.3158 ( 14)  0.1103 ( 15)  0.2210 ( 31) -0.1138 ( 33)
           0.1718 ( 34) -0.1501 ( 35) -0.1237 ( 37)  0.1666 ( 38)  0.1051 ( 44)
          -0.1135 ( 46)  0.1151 ( 51)  0.1070 ( 52)  0.1077 ( 58) -0.1147 ( 60)
           0.1139 ( 62) -0.1127 ( 64) -0.1001 ( 66)  0.1159 ( 68)
 CRD 22=  -0.4225 (  7)  0.1902 (  8)  0.1868 (  9)  0.1408 ( 10) -0.3584 ( 11)
           0.1867 ( 12) -0.3624 ( 13)  0.1407 ( 14)  0.1898 ( 15)  0.2132 ( 31)
          -0.1060 ( 32) -0.1076 ( 33)  0.1796 ( 35) -0.1026 ( 36)  0.1816 ( 37)
          -0.1043 ( 39) -0.1146 ( 46)  0.1148 ( 51) -0.1116 ( 54)  0.1126 ( 55)
          -0.1150 ( 59)  0.1302 ( 62) -0.1300 ( 64)  0.1138 ( 67)
 CRD 23=  -0.3312 (  8)  0.3315 (  9)  0.3133 ( 10) -0.3107 ( 12) -0.3150 ( 14)
           0.3121 ( 15) -0.1778 ( 32)  0.1775 ( 33) -0.1698 ( 34)  0.1672 ( 36)
           0.1707 ( 38) -0.1678 ( 39)  0.1296 ( 43)  0.1214 ( 44)  0.1206 ( 49)
           0.1213 ( 52)  0.1206 ( 57)  0.1214 ( 58)  0.1296 ( 63)  0.1207 ( 66)
           0.1295 ( 69)
 CRD 24=   0.4041 (  8) -0.3921 (  9)  0.3074 ( 10) -0.1521 ( 11) -0.1529 ( 12)
           0.1639 ( 13) -0.2682 ( 14)  0.1017 ( 15)  0.2215 ( 32) -0.2289 ( 33)
          -0.1786 ( 34)  0.1568 ( 38) -0.1289 ( 43)  0.1080 ( 46) -0.1139 ( 47)
          -0.1051 ( 48)  0.1157 ( 51) -0.1258 ( 54) -0.1159 ( 55)  0.1213 ( 60)
          -0.1059 ( 61)  0.1291 ( 62) -0.1156 ( 63)  0.1206 ( 64) -0.1165 ( 65)
           0.1283 ( 68) -0.1163 ( 69)
 CRD 25=   0.2518 (  7) -0.1006 (  9) -0.2483 ( 10) -0.1387 ( 11)  0.3303 ( 12)
          -0.1106 ( 13) -0.2793 ( 14)  0.3442 ( 15) -0.1618 ( 31)  0.1532 ( 34)
          -0.2222 ( 36)  0.1751 ( 38) -0.2294 ( 39) -0.1575 ( 45)  0.1570 ( 50)
          -0.1643 ( 53)  0.1610 ( 56) -0.1758 ( 59) -0.1111 ( 61)  0.1073 ( 64)
           0.1764 ( 67)
 CRD 26=  -0.2234 (  5)  0.2073 (  6)  0.1670 (  8) -0.1355 (  9)  0.2834 ( 10)
           0.1052 ( 11)  0.1227 ( 12) -0.1133 ( 13) -0.2825 ( 14) -0.1551 ( 15)
          -0.2153 ( 19) -0.1196 ( 20)  0.2187 ( 21)  0.1422 ( 23) -0.1063 ( 26)
           0.1146 ( 27)  0.1560 ( 28) -0.1681 ( 29) -0.1301 ( 32)  0.1149 ( 33)
          -0.1885 ( 35) -0.1598 ( 36)  0.2032 ( 37)  0.1541 ( 39) -0.2140 ( 41)
           0.1754 ( 43)  0.1003 ( 46)  0.1194 ( 54)  0.1106 ( 55) -0.1214 ( 60)
          -0.1237 ( 62) -0.1150 ( 64) -0.1174 ( 68)
 CRD 27=   0.7372 (  2) -0.2054 (  7) -0.1678 ( 11) -0.1705 ( 13) -0.1502 ( 17)
           0.1320 ( 32)  0.1344 ( 33)  0.1017 ( 36)  0.1063 ( 39)  0.1249 ( 54)
          -0.1231 ( 55)  0.1545 ( 59) -0.1310 ( 62)  0.1287 ( 64) -0.1540 ( 67)
 CRD 28=   0.1172 (  2) -0.1063 (  3)  0.2203 (  8)  0.2320 (  9) -0.1098 ( 11)
          -0.2036 ( 12) -0.1839 ( 15) -0.1403 ( 16)  0.1825 ( 17) -0.1464 ( 18)
           0.1810 ( 20) -0.1628 ( 22)  0.1728 ( 23) -0.1170 ( 24) -0.2825 ( 25)
           0.1399 ( 26)  0.1095 ( 27) -0.2471 ( 31) -0.1407 ( 32) -0.1505 ( 33)
           0.1811 ( 34)  0.1266 ( 35)  0.1670 ( 38)  0.2358 ( 44)  0.1863 ( 45)
          -0.1732 ( 47)  0.1843 ( 48) -0.2189 ( 49) -0.1707 ( 50)
 CRD 29=  -0.3626 (  2)  0.2522 (  3)  0.3352 (  4)  0.2302 (  5)  0.2285 (  6)
          -0.1822 (  7) -0.1275 (  8) -0.1276 (  9) -0.1148 ( 10) -0.1720 ( 11)
          -0.1127 ( 12) -0.1727 ( 13) -0.1159 ( 14) -0.1136 ( 15) -0.1525 ( 16)
          -0.1672 ( 17) -0.1345 ( 18) -0.1351 ( 19) -0.1466 ( 20) -0.1342 ( 21)
          -0.1336 ( 22) -0.1466 ( 23) -0.1535 ( 24)  0.1299 ( 31)  0.1691 ( 32)
           0.1692 ( 33)  0.1556 ( 34)  0.1147 ( 35)  0.1575 ( 36)  0.1158 ( 37)
           0.1564 ( 38)  0.1584 ( 39)
 CRD 30=  -0.4927 (  5)  0.4571 (  6)  0.1023 (  8) -0.1218 (  9) -0.1607 ( 11)
          -0.1797 ( 12)  0.1731 ( 13)  0.1776 ( 15) -0.1548 ( 16)  0.1749 ( 18)
           0.1525 ( 19) -0.1384 ( 21) -0.1654 ( 22)  0.1669 ( 24)  0.2028 ( 34)
           0.1410 ( 35)  0.1225 ( 36) -0.1521 ( 37) -0.2063 ( 38) -0.1442 ( 39)
           0.1091 ( 43)
 CRD 31=   0.3112 (  2)  0.1920 (  3) -0.5024 (  4)  0.2164 (  5)  0.2186 (  6)
           0.1304 (  7) -0.1408 (  8) -0.1414 (  9) -0.1507 ( 10)  0.1209 ( 11)
          -0.1452 ( 12)  0.1217 ( 13) -0.1504 ( 14) -0.1443 ( 15)  0.2052 ( 31)
           0.2131 ( 35)  0.2125 ( 37) -0.1325 ( 54)  0.1328 ( 55) -0.1290 ( 59)
           0.1321 ( 62) -0.1324 ( 64)  0.1291 ( 67)
 CRD 32=  -0.4792 (  3)  0.2081 (  5)  0.2614 (  6)  0.1740 (  7) -0.1965 ( 10)
          -0.1021 ( 11)  0.1213 ( 12) -0.2007 ( 14)  0.1417 ( 15)  0.1327 ( 20)
           0.1341 ( 23)  0.1824 ( 25) -0.1030 ( 26) -0.1556 ( 32) -0.1365 ( 33)
           0.2061 ( 36)  0.1992 ( 39) -0.2432 ( 44)  0.1101 ( 47) -0.1112 ( 48)
           0.2257 ( 49)
 CRD 33=   0.2116 (  8) -0.2116 (  9) -0.2426 ( 10)  0.2423 ( 12)  0.2404 ( 14)
          -0.2401 ( 15)  0.1004 ( 21) -0.1615 ( 32)  0.1612 ( 33) -0.1865 ( 34)
           0.1826 ( 36)  0.1850 ( 38) -0.1808 ( 39)  0.1316 ( 43)  0.1602 ( 44)
          -0.1117 ( 45) -0.1108 ( 46) -0.1146 ( 47) -0.1145 ( 48)  0.1624 ( 49)
          -0.1120 ( 50) -0.1106 ( 51)  0.1603 ( 52) -0.1116 ( 53) -0.1150 ( 54)
          -0.1145 ( 55) -0.1124 ( 56)  0.1620 ( 57)  0.1574 ( 58) -0.1145 ( 59)
          -0.1077 ( 60) -0.1174 ( 61) -0.1076 ( 62)  0.1347 ( 63) -0.1075 ( 64)
          -0.1177 ( 65)  0.1593 ( 66) -0.1151 ( 67) -0.1073 ( 68)  0.1349 ( 69)
 CRD 34=   0.1956 (  8) -0.2114 (  9)  0.2348 ( 11) -0.2034 ( 12) -0.2532 ( 13)
           0.1893 ( 15)  0.1019 ( 20) -0.1179 ( 28)  0.1270 ( 29) -0.1616 ( 32)
           0.1461 ( 33)  0.1659 ( 35) -0.1769 ( 36) -0.1789 ( 37)  0.1680 ( 39)
           0.1237 ( 43)  0.1992 ( 45) -0.1258 ( 46) -0.1074 ( 48)  0.2006 ( 50)
          -0.1035 ( 51)  0.1648 ( 53) -0.1161 ( 54) -0.1419 ( 55)  0.1683 ( 56)
           0.2318 ( 59) -0.1212 ( 60)  0.1283 ( 63) -0.1260 ( 64)  0.2306 ( 67)
          -0.1038 ( 68)  0.1234 ( 69)
 CRD 35=  -0.3215 (  7)  0.1499 (  8)  0.1310 (  9) -0.1991 ( 10)  0.1790 ( 11)
           0.1428 ( 13) -0.1927 ( 14)  0.1134 ( 17)  0.1097 ( 30) -0.2282 ( 31)
           0.1278 ( 32)  0.1421 ( 33) -0.1663 ( 34)  0.1270 ( 35)  0.1013 ( 37)
          -0.1582 ( 38)  0.1891 ( 46) -0.1945 ( 47)  0.1791 ( 48) -0.2024 ( 51)
          -0.2125 ( 54)  0.1940 ( 55)  0.1600 ( 60)  0.1681 ( 61) -0.2315 ( 62)
           0.2178 ( 64) -0.1801 ( 65) -0.1737 ( 68)
 CRD 36=  -0.1352 (  5)  0.1255 (  6) -0.2262 (  8)  0.2114 (  9) -0.2012 ( 10)
           0.1686 ( 11) -0.1817 ( 13)  0.1852 ( 14) -0.1241 ( 20)  0.1276 ( 23)
           0.1001 ( 24)  0.1028 ( 28) -0.1108 ( 29)  0.1590 ( 32) -0.1682 ( 33)
          -0.1380 ( 34)  0.1493 ( 35) -0.1609 ( 37)  0.1250 ( 38) -0.1456 ( 41)
          -0.1334 ( 43)  0.1227 ( 46) -0.1795 ( 47) -0.1742 ( 48)  0.1404 ( 51)
           0.1431 ( 52)  0.1647 ( 53)  0.1557 ( 56)  0.1714 ( 57)  0.1062 ( 59)
          -0.1394 ( 61) -0.2798 ( 63) -0.1265 ( 65)  0.1171 ( 66)  0.1014 ( 67)
          -0.2756 ( 69)
 CRD 37=   0.2525 (  3) -0.1118 (  5) -0.1400 (  6)  0.1176 (  7) -0.1180 ( 10)
           0.2127 ( 12) -0.1404 ( 14)  0.2159 ( 15) -0.1362 ( 18)  0.1357 ( 19)
           0.1258 ( 21) -0.1265 ( 22) -0.1875 ( 25)  0.1046 ( 26)  0.1110 ( 30)
           0.1359 ( 31) -0.1036 ( 34)  0.1388 ( 36) -0.1166 ( 38)  0.1446 ( 39)
           0.1081 ( 40) -0.1164 ( 42)  0.2406 ( 45) -0.1041 ( 46) -0.1372 ( 47)
           0.1617 ( 48) -0.2361 ( 50) -0.2378 ( 52)  0.2164 ( 57) -0.2645 ( 58)
          -0.1172 ( 60)  0.2497 ( 66)  0.1202 ( 68)
 CRD 38=   0.2535 (  4)  0.1603 (  7)  0.1605 ( 11)  0.1605 ( 13) -0.1236 ( 16)
          -0.1233 ( 17) -0.1235 ( 24) -0.1061 ( 25) -0.1057 ( 26) -0.1058 ( 27)
           0.1081 ( 31)  0.1081 ( 35)  0.1081 ( 37) -0.1196 ( 45) -0.1195 ( 46)
          -0.1196 ( 47)  0.1195 ( 48)  0.1196 ( 50)  0.1195 ( 51) -0.1422 ( 52)
          -0.2618 ( 53)  0.2618 ( 56)  0.1422 ( 57)  0.1421 ( 58) -0.2614 ( 60)
           0.2617 ( 61) -0.1419 ( 63) -0.2617 ( 65) -0.1421 ( 66)  0.2614 ( 68)
           0.1420 ( 69)
 CRD 39=   0.5870 ( 40)  0.5395 ( 41)  0.5836 ( 42)

 THE DETERMINANT OF THE G MATRIX IS 10**(   -17)


                     --------------------
                     INTERNAL COORDINATES
                     --------------------

                 - - ATOMS - -         COORDINATE      COORDINATE
 NO.   TYPE    I  J  K  L  M  N        (BOHR,RAD)       (ANG,DEG)
 ----------------------------------------------------------------
   1 BEND      1  3  2                  3.0019663     172.0000000
   2 STRETCH   1  3                     3.9655853       2.0984975
   3 STRETCH   2  4                     3.3484320       1.7719140
   4 STRETCH   2  3                     3.2154201       1.7015272
   5 STRETCH   2  6                     3.3484566       1.7719271
   6 STRETCH   2  5                     3.3484461       1.7719215
   7 STRETCH   4  8                     2.0698887       1.0953380
   8 STRETCH   4  7                     2.0585963       1.0893623
   9 STRETCH   4  9                     2.0585769       1.0893521
  10 STRETCH   5 12                     2.0585887       1.0893583
  11 STRETCH   5 11                     2.0699049       1.0953466
  12 STRETCH   5 10                     2.0585850       1.0893563
  13 STRETCH   6 15                     2.0699113       1.0953500
  14 STRETCH   6 14                     2.0585734       1.0893502
  15 STRETCH   6 13                     2.0585905       1.0893593
  16 BEND      2  5 11                  1.8617257     106.6690242
  17 BEND      2  4  8                  1.8617503     106.6704366
  18 BEND      2  6 13                  1.9422064     111.2802298
  19 BEND      2  6 14                  1.9421731     111.2783195
  20 BEND      2  4  9                  1.9421657     111.2778965
  21 BEND      2  5 12                  1.9421929     111.2794586
  22 BEND      2  5 10                  1.9422210     111.2810643
  23 BEND      2  4  7                  1.9421835     111.2789152
  24 BEND      2  6 15                  1.8617547     106.6706876
  25 BEND      3  2  4                  1.8566295     106.3770343
  26 BEND      3  2  5                  1.8564257     106.3653596
  27 BEND      3  2  6                  1.8563668     106.3619840
  28 BEND      4  2  6                  1.9615455     112.3882757
  29 BEND      4  2  5                  1.9615420     112.3880789
  30 BEND      5  2  6                  1.9615340     112.3876199
  31 BEND      7  4  9                  1.9411093     111.2173696
  32 BEND      7  4  8                  1.8865465     108.0911531
  33 BEND      8  4  9                  1.8865760     108.0928403
  34 BEND     10  5 11                  1.8865249     108.0899157
  35 BEND     10  5 12                  1.9411462     111.2194854
  36 BEND     11  5 12                  1.8865127     108.0892176
  37 BEND     13  6 14                  1.9411688     111.2207796
  38 BEND     13  6 15                  1.8864953     108.0882171
  39 BEND     14  6 15                  1.8865259     108.0899695
  40 TORSION   1  3  2  5               0.9826059      56.2991703
  41 TORSION   1  3  2  4               3.0770573     176.3023961
  42 TORSION   1  3  2  6              -1.1117026     -63.6958676
  43 TORSION   3  2  4  8               3.1415018     179.9947971
  44 TORSION   3  2  6 15               3.1414176     179.9899701
  45 TORSION   3  2  6 14              -1.0879358     -62.3341312
  46 TORSION   3  2  4  7              -1.0878237     -62.3277076
  47 TORSION   3  2  5 10              -1.0876530     -62.3179262
  48 TORSION   3  2  6 13               1.0876044      62.3151424
  49 TORSION   3  2  5 11              -3.1414924    -179.9942563
  50 TORSION   3  2  5 12               1.0878833      62.3311241
  51 TORSION   3  2  4  9               1.0876163      62.3158257
  52 TORSION   4  2  6 15              -1.1167595     -63.9856053
  53 TORSION   4  2  6 14               0.9370724      53.6902935
  54 TORSION   4  2  5 10              -3.1126949    -178.3442782
  55 TORSION   4  2  6 13               3.1126126     178.3395670
  56 TORSION   4  2  5 12              -0.9371585     -53.6952280
  57 TORSION   4  2  5 11               1.1166510      63.9793917
  58 TORSION   5  2  6 15               1.1166606      63.9799412
  59 TORSION   5  2  6 14              -3.1126928    -178.3441601
  60 TORSION   5  2  4  7               0.9370955      53.6916197
  61 TORSION   5  2  6 13              -0.9371526     -53.6948865
  62 TORSION   5  2  4  9               3.1125356     178.3351530
  63 TORSION   5  2  4  8              -1.1167642     -63.9858756
  64 TORSION   6  2  4  7              -3.1126739    -178.3430761
  65 TORSION   6  2  5 10               0.9370685      53.6900713
  66 TORSION   6  2  5 11              -1.1167709     -63.9862587
  67 TORSION   6  2  5 12               3.1126049     178.3391216
  68 TORSION   6  2  4  9              -0.9372338     -53.6995428
  69 TORSION   6  2  4  8               1.1166517      63.9794286

     ------------------------------------------
     THE POINT GROUP IS C1 , NAXIS= 0, ORDER= 1
     ------------------------------------------

 -- VARIATIONAL SPACE WILL BE RESTRICTED TO PURE SPHERICAL HARMONICS ONLY --
 AFTER EXCLUDING CONTAMINANT COMBINATIONS FROM THE CARTESIAN GAUSSIAN BASIS
 SET, THE NUMBER OF SPHERICAL HARMONICS KEPT IN THE VARIATION SPACE IS  316

     DIMENSIONS OF THE SYMMETRY SUBSPACES ARE
 A   =  316

 ..... DONE SETTING UP THE RUN .....
 CPU     0: STEP CPU TIME=     0.09 TOTAL CPU TIME=        0.1 (    0.0 MIN)
 TOTAL WALL CLOCK TIME=        0.2 SECONDS, CPU UTILIZATION IS  52.94%


          -----------------------------
          STATIONARY POINT LOCATION RUN
          -----------------------------


           ** GEOMETRY CONSTRAINTS ARE BEING APPLIED. **

          TRANSFORMING DISPLACEMENT FROM INTERNALS TO CARTESIANS
          THE ROOT MEAN SQUARE ERROR IN ITERATION   1 IS   0.00000000
 WARNING! THE RADIUS IN CARTESIANS IS    0.00000
 OBTAINING INITIAL HESSIAN, HESS=GUESS   
 DIAGONAL GUESS HESSIAN IN INTERNAL COORDS IS
     1  0.3179     2  0.5872     3  0.4357     4  0.4035     5  0.4357
     6  0.4357     7  0.3428     8  0.3468     9  0.3468    10  0.3468
    11  0.3428    12  0.3468    13  0.3428    14  0.3468    15  0.3468
    16  0.2410    17  0.2410    18  0.2414    19  0.2414    20  0.2414
    21  0.2414    22  0.2414    23  0.2414    24  0.2410    25  0.2834
    26  0.2834    27  0.2834    28  0.2919    29  0.2919    30  0.2919
    31  0.2035    32  0.2032    33  0.2032    34  0.2032    35  0.2035
    36  0.2032    37  0.2035    38  0.2032    39  0.2032    40  0.2500
    41  0.2500    42  0.2500    43  0.2500    44  0.2500    45  0.2500
    46  0.2500    47  0.2500    48  0.2500    49  0.2500    50  0.2500
    51  0.2500    52  0.2500    53  0.2500    54  0.2500    55  0.2500
    56  0.2500    57  0.2500    58  0.2500    59  0.2500    60  0.2500
    61  0.2500    62  0.2500    63  0.2500    64  0.2500    65  0.2500
    66  0.2500    67  0.2500    68  0.2500    69  0.2500
 TRANSFORMING HESSIAN TO SYMMETRY COORDINATES

          PARAMETERS CONTROLLING GEOMETRY SEARCH ARE
          METHOD =QA                  UPHESS =BFGS    
          NNEG   =         0          NFRZ   =         0
          NSTEP  =        50          IFOLOW =         1
          HESS   =GUESS               RESTAR =         F
          IHREP  =         0          HSSEND =         F
          NPRT   =         0          NPUN   =         0
          OPTTOL = 1.000E-04          RMIN   = 1.500E-03
          RMAX   = 1.000E-01          RLIM   = 7.000E-02
          DXMAX  = 3.000E-01          PURIFY =         F
          MOVIE  =         F          TRUPD  =         T
          TRMAX  = 5.000E-01          TRMIN  = 5.000E-02
          ITBMAT =         5          STPT   =         F
          STSTEP = 1.000E-02          PROJCT=          T

 BEGINNING GEOMETRY SEARCH POINT NSERCH=   0 ...

 COORDINATES OF ALL ATOMS ARE (ANGS)
   ATOM   CHARGE       X              Y              Z
 ------------------------------------------------------------
 LA         57.0   0.3143500000   0.8802800000  -4.0288700000
 P          15.0  -0.2262823417   0.3900709813  -0.3089102474
 O           8.0  -0.1001300000   0.6702700000  -1.9824600000
 C           6.0  -1.7270269833   1.1717833150   0.2167994655
 C           6.0   1.2095200980   1.1203909863   0.4292020889
 C           6.0  -0.2722122895  -1.3688214340  -0.0993550415
 H           1.0  -1.6904154285   2.2481762756   0.0532511981
 H           1.0  -1.8131122591   0.9941809430   1.2942093395
 H           1.0  -2.5950964267   0.7284133291  -0.2695814985
 H           1.0   2.1225940768   0.6457761866   0.0718032968
 H           1.0   1.1333925572   0.9427010121   1.5073556292
 H           1.0   1.2343522578   2.1969784241   0.2647503669
 H           1.0   0.6467785913  -1.8334477220  -0.4547165302
 H           1.0  -1.1461737827  -1.8020334072  -0.5843319667
 H           1.0  -0.3532688655  -1.5550189162   0.9770054232


                     --------------------
                     INTERNAL COORDINATES
                     --------------------

                 - - ATOMS - -         COORDINATE      COORDINATE
 NO.   TYPE    I  J  K  L  M  N        (BOHR,RAD)       (ANG,DEG)
 ----------------------------------------------------------------
   1 BEND      1  3  2                  3.0019663     172.0000000
   2 STRETCH   1  3                     3.9655853       2.0984975
   3 STRETCH   2  4                     3.3484320       1.7719140
   4 STRETCH   2  3                     3.2154201       1.7015272
   5 STRETCH   2  6                     3.3484566       1.7719271
   6 STRETCH   2  5                     3.3484461       1.7719215
   7 STRETCH   4  8                     2.0698887       1.0953380
   8 STRETCH   4  7                     2.0585963       1.0893623
   9 STRETCH   4  9                     2.0585769       1.0893521
  10 STRETCH   5 12                     2.0585887       1.0893583
  11 STRETCH   5 11                     2.0699049       1.0953466
  12 STRETCH   5 10                     2.0585850       1.0893563
  13 STRETCH   6 15                     2.0699113       1.0953500
  14 STRETCH   6 14                     2.0585734       1.0893502
  15 STRETCH   6 13                     2.0585905       1.0893593
  16 BEND      2  5 11                  1.8617257     106.6690242
  17 BEND      2  4  8                  1.8617503     106.6704366
  18 BEND      2  6 13                  1.9422064     111.2802298
  19 BEND      2  6 14                  1.9421731     111.2783195
  20 BEND      2  4  9                  1.9421657     111.2778965
  21 BEND      2  5 12                  1.9421929     111.2794586
  22 BEND      2  5 10                  1.9422210     111.2810643
  23 BEND      2  4  7                  1.9421835     111.2789152
  24 BEND      2  6 15                  1.8617547     106.6706876
  25 BEND      3  2  4                  1.8566295     106.3770343
  26 BEND      3  2  5                  1.8564257     106.3653596
  27 BEND      3  2  6                  1.8563668     106.3619840
  28 BEND      4  2  6                  1.9615455     112.3882757
  29 BEND      4  2  5                  1.9615420     112.3880789
  30 BEND      5  2  6                  1.9615340     112.3876199
  31 BEND      7  4  9                  1.9411093     111.2173696
  32 BEND      7  4  8                  1.8865465     108.0911531
  33 BEND      8  4  9                  1.8865760     108.0928403
  34 BEND     10  5 11                  1.8865249     108.0899157
  35 BEND     10  5 12                  1.9411462     111.2194854
  36 BEND     11  5 12                  1.8865127     108.0892176
  37 BEND     13  6 14                  1.9411688     111.2207796
  38 BEND     13  6 15                  1.8864953     108.0882171
  39 BEND     14  6 15                  1.8865259     108.0899695
  40 TORSION   1  3  2  5               0.9826059      56.2991703
  41 TORSION   1  3  2  4               3.0770573     176.3023961
  42 TORSION   1  3  2  6              -1.1117026     -63.6958676
  43 TORSION   3  2  4  8               3.1415018     179.9947971
  44 TORSION   3  2  6 15               3.1414176     179.9899701
  45 TORSION   3  2  6 14              -1.0879358     -62.3341312
  46 TORSION   3  2  4  7              -1.0878237     -62.3277076
  47 TORSION   3  2  5 10              -1.0876530     -62.3179262
  48 TORSION   3  2  6 13               1.0876044      62.3151424
  49 TORSION   3  2  5 11              -3.1414924    -179.9942563
  50 TORSION   3  2  5 12               1.0878833      62.3311241
  51 TORSION   3  2  4  9               1.0876163      62.3158257
  52 TORSION   4  2  6 15              -1.1167595     -63.9856053
  53 TORSION   4  2  6 14               0.9370724      53.6902935
  54 TORSION   4  2  5 10              -3.1126949    -178.3442782
  55 TORSION   4  2  6 13               3.1126126     178.3395670
  56 TORSION   4  2  5 12              -0.9371585     -53.6952280
  57 TORSION   4  2  5 11               1.1166510      63.9793917
  58 TORSION   5  2  6 15               1.1166606      63.9799412
  59 TORSION   5  2  6 14              -3.1126928    -178.3441601
  60 TORSION   5  2  4  7               0.9370955      53.6916197
  61 TORSION   5  2  6 13              -0.9371526     -53.6948865
  62 TORSION   5  2  4  9               3.1125356     178.3351530
  63 TORSION   5  2  4  8              -1.1167642     -63.9858756
  64 TORSION   6  2  4  7              -3.1126739    -178.3430761
  65 TORSION   6  2  5 10               0.9370685      53.6900713
  66 TORSION   6  2  5 11              -1.1167709     -63.9862587
  67 TORSION   6  2  5 12               3.1126049     178.3391216
  68 TORSION   6  2  4  9              -0.9372338     -53.6995428
  69 TORSION   6  2  4  8               1.1166517      63.9794286

          ********************
          1 ELECTRON INTEGRALS
          ********************
 TIME TO DO ORDINARY INTEGRALS=      0.01
 TIME TO DO      ECP INTEGRALS=      0.07
 ...... END OF ONE-ELECTRON INTEGRALS ......
 CPU     0: STEP CPU TIME=     0.08 TOTAL CPU TIME=        0.2 (    0.0 MIN)
 TOTAL WALL CLOCK TIME=        0.3 SECONDS, CPU UTILIZATION IS  58.62%

          -------------
          GUESS OPTIONS
          -------------
          GUESS =HUCKEL            NORB  =       0          NORDER=       0
          MIX   =       F          PRTMO =       F          PUNMO =       F
          TOLZ  = 1.0E-08          TOLE  = 1.0E-05
          SYMDEN=       F          PURIFY=       F

 INITIAL GUESS ORBITALS GENERATED BY HUCKEL   ROUTINE.
 HUCKEL GUESS REQUIRES    916545 WORDS.

 STATISTICS FOR GENERATION OF SYMMETRY ORBITAL -Q- MATRIX
 NUMBER OF CARTESIAN ATOMIC ORBITALS=        354
 NUMBER OF SPHERICAL CONTAMINANTS DROPPED=    38
 NUMBER OF LINEARLY DEPENDENT MOS DROPPED=     0
 TOTAL NUMBER OF MOS IN VARIATION SPACE=     316

 SYMMETRIES FOR INITIAL GUESS ORBITALS FOLLOW.   BOTH SET(S).
    29 ORBITALS ARE OCCUPIED (   13 CORE ORBITALS).
    14=A       15=A       16=A       17=A       18=A       19=A       20=A   
    21=A       22=A       23=A       24=A       25=A       26=A       27=A   
    28=A       29=A       30=A       31=A       32=A       33=A       34=A   
    35=A       36=A       37=A       38=A       39=A   
 ...... END OF INITIAL ORBITAL SELECTION ......
 CPU     0: STEP CPU TIME=     0.21 TOTAL CPU TIME=        0.4 (    0.0 MIN)
 TOTAL WALL CLOCK TIME=        0.8 SECONDS, CPU UTILIZATION IS  48.72%

                    ----------------------
                    AO INTEGRAL TECHNOLOGY
                    ----------------------
     S,P,L SHELL ROTATED AXIS INTEGRALS, REPROGRAMMED BY
        KAZUYA ISHIMURA (IMS) AND JOSE SIERRA (SYNSTAR).
     S,P,D,L SHELL ROTATED AXIS INTEGRALS PROGRAMMED BY
        KAZUYA ISHIMURA (INSTITUTE FOR MOLECULAR SCIENCE).
     S,P,D,F,G SHELL TO TOTAL QUARTET ANGULAR MOMENTUM SUM 5,
        ERIC PROGRAM BY GRAHAM FLETCHER (ELORET AND NASA ADVANCED
        SUPERCOMPUTING DIVISION, AMES RESEARCH CENTER).
     S,P,D,F,G,L SHELL GENERAL RYS QUADRATURE PROGRAMMED BY
        MICHEL DUPUIS (PACIFIC NORTHWEST NATIONAL LABORATORY).

          --------------------
          2 ELECTRON INTEGRALS
          --------------------

 DIRECT SCF METHOD SKIPS INTEGRAL STORAGE ON DISK.
 DIRECT TRANSFORMATION SKIPS AO INTEGRAL STORAGE ON DISK.
  ...... END OF TWO-ELECTRON INTEGRALS .....
 CPU     0: STEP CPU TIME=     0.02 TOTAL CPU TIME=        0.4 (    0.0 MIN)
 TOTAL WALL CLOCK TIME=        0.8 SECONDS, CPU UTILIZATION IS  50.00%

          --------------------------
                 RHF SCF CALCULATION
          --------------------------

     NUCLEAR ENERGY =       335.0552467634
     MAXIT =  200     NPUNCH=    2
     EXTRAP=T  DAMP=F  SHIFT=F  RSTRCT=F  DIIS=F  DEM=F  SOSCF=T
     DENSITY MATRIX CONV=  2.00E-06
     SOSCF WILL OPTIMIZE    8323 ORBITAL ROTATIONS, SOGTOL=   0.250
     MEMORY REQUIRED FOR RHF ITERS=    982670 WORDS.

 DIRECT SCF CALCULATION, SCHWRZ=T   FDIFF=F,  DIRTHR=  0.00E+00 NITDIR=10
 SCHWARZ INEQUALITY OVERHEAD:     62136 INTEGRALS, T=        0.00

                                                                                   NONZERO     BLOCKS
 ITER EX DEM     TOTAL ENERGY        E CHANGE  DENSITY CHANGE     ORB. GRAD      INTEGRALS    SKIPPED
   1  0  0     -563.3633847431  -563.3633847431   0.369510023   0.000000000     1467241987    4156438
          ---------------START SECOND ORDER SCF---------------
   2  1  0     -564.4965499948    -1.1331652517   0.169276932   0.095673881     1454278666    4462345
   3  2  0     -564.6229264500    -0.1263764552   0.065544390   0.063497741     1453096190    4483407
   4  3  0     -564.7216957301    -0.0987692801   0.020558419   0.011321019     1453516537    4469204
   5  4  0     -564.7242289266    -0.0025331965   0.006571545   0.005771037     1454058854    4460773
   6  5  0     -564.7248481460    -0.0006192194   0.002763208   0.001128088     1454126660    4459164
   7  6  0     -564.7249003690    -0.0000522229   0.000932168   0.000254600     1454150980    4458843
   8  7  0     -564.7249053751    -0.0000050062   0.000353659   0.000079269     1454178660    4458676
   9  8  0     -564.7249059174    -0.0000005423   0.000134696   0.000040006     1454181235    4458657
  10  9  0     -564.7249059926    -0.0000000751   0.000052473   0.000019828     1454180852    4458698
  11 10  0     -564.7249060076    -0.0000000150   0.000024599   0.000007213     1454180849    4458700
  12 11  0     -564.7249060102    -0.0000000026   0.000009429   0.000002381     1454181354    4458699
  13 12  0     -564.7249060106    -0.0000000004   0.000003394   0.000000941     1454181905    4458689
  14 13  0     -564.7249060106    -0.0000000000   0.000001411   0.000000360     1454181863    4458691

          -----------------
          DENSITY CONVERGED
          -----------------
     TIME TO FORM FOCK OPERATORS=      91.6 SECONDS (       6.5 SEC/ITER)
     FOCK TIME ON FIRST ITERATION=       6.6, LAST ITERATION=       6.5
     TIME TO SOLVE SCF EQUATIONS=       0.4 SECONDS (       0.0 SEC/ITER)

 FINAL RHF ENERGY IS     -564.7249060106 AFTER  14 ITERATIONS

          ------------
          EIGENVECTORS
          ------------

                      1          2          3          4          5
                  -80.4716   -21.0452   -11.6350   -11.6346   -11.6296
                     A          A          A          A          A   
    1  LA 1  S    0.000004  -0.000019   0.000003   0.000003   0.000005
    2  LA 1  X   -0.000002   0.000006  -0.000011  -0.000000   0.000008
    3  LA 1  Y   -0.000000  -0.000002  -0.000006   0.000012  -0.000007
    4  LA 1  Z    0.000005  -0.000005  -0.000002   0.000003   0.000010
    5  LA 1 XX    0.000004  -0.000007   0.000000  -0.000010   0.000005
    6  LA 1 YY    0.000004  -0.000011  -0.000009   0.000010  -0.000002
    7  LA 1 ZZ   -0.000008   0.000018   0.000009   0.000001  -0.000002
    8  LA 1 XY   -0.000000   0.000002   0.000006   0.000002  -0.000007
    9  LA 1 XZ    0.000003  -0.000017   0.000011  -0.000004  -0.000002
   10  LA 1 YZ    0.000001   0.000002   0.000007  -0.000012   0.000000
   11  LA 1 XX    0.000000   0.000064   0.000012   0.000037   0.000019
   12  LA 1 YY    0.000001   0.000069   0.000036  -0.000001   0.000030
   13  LA 1 ZZ   -0.000001  -0.000133  -0.000048  -0.000037  -0.000049
   14  LA 1 XY   -0.000000  -0.000008  -0.000015  -0.000004   0.000011
   15  LA 1 XZ    0.000002   0.000052  -0.000004   0.000021   0.000012
   16  LA 1 YZ   -0.000001   0.000021  -0.000006   0.000022   0.000016
   17  LA 1  S   -0.000011  -0.000126  -0.000116  -0.000119  -0.000130
   18  LA 1  X    0.000000   0.000028  -0.000010   0.000011   0.000021
   19  LA 1  Y   -0.000001   0.000006  -0.000011   0.000025  -0.000004
   20  LA 1  Z    0.000002  -0.000097  -0.000038  -0.000032  -0.000036
   21  LA 1  S    0.000005   0.000053   0.000195   0.000200   0.000196
   22  LA 1  X   -0.000000  -0.000017   0.000023  -0.000024  -0.000056
   23  LA 1  Y    0.000000   0.000000   0.000006  -0.000074  -0.000001
   24  LA 1  Z   -0.000001   0.000043   0.000171   0.000157   0.000156
   25  LA 1  S   -0.000019  -0.000027  -0.000012  -0.000013  -0.000026
   26  LA 1  X    0.000007   0.000007   0.000023   0.000003  -0.000009
   27  LA 1  Y    0.000002   0.000017   0.000014  -0.000021   0.000017
   28  LA 1  Z   -0.000026  -0.000101  -0.000014  -0.000024  -0.000050
   29  LA 1 XX   -0.000000  -0.000012  -0.000043  -0.000060  -0.000034
   30  LA 1 YY   -0.000001  -0.000016  -0.000060  -0.000019  -0.000054
   31  LA 1 ZZ    0.000001   0.000028   0.000103   0.000079   0.000088
   32  LA 1 XY    0.000000   0.000001   0.000008   0.000007  -0.000009
   33  LA 1 XZ   -0.000001  -0.000017   0.000022  -0.000024  -0.000044
   34  LA 1 YZ    0.000000  -0.000002   0.000001  -0.000063  -0.000011
   35  P  2  S    1.000138   0.000084   0.000079   0.000082   0.000085
   36  P  2  S    0.000178   0.000521   0.000566   0.000584   0.000601
   37  P  2  S    0.000192   0.000695   0.000879   0.000906   0.000928
   38  P  2  S   -0.000946  -0.000241  -0.000277  -0.000287  -0.000301
   39  P  2  S   -0.000350  -0.002528   0.000090   0.000102   0.000185
   40  P  2  X    0.000009   0.000011   0.000409  -0.000008  -0.000442
   41  P  2  Y    0.000013   0.000025   0.000216  -0.000498   0.000233
   42  P  2  Z   -0.000084  -0.000149   0.000205   0.000058   0.000143
   43  P  2  X    0.000009   0.000031   0.001075  -0.000018  -0.001154
   44  P  2  Y    0.000012   0.000070   0.000569  -0.001306   0.000610
   45  P  2  Z   -0.000081  -0.000416   0.000524   0.000137   0.000363
   46  P  2  X   -0.000005  -0.000010  -0.000045   0.000002   0.000056
   47  P  2  Y   -0.000007  -0.000023  -0.000023   0.000059  -0.000028
   48  P  2  Z    0.000043   0.000137  -0.000035  -0.000019  -0.000027
   49  P  2  X    0.000002  -0.000175  -0.000058  -0.000040   0.000000
   50  P  2  Y    0.000017  -0.000168  -0.000044  -0.000012  -0.000055
   51  P  2  Z   -0.000084   0.001255   0.000257   0.000271   0.000251
   52  P  2 XX   -0.000004  -0.000090   0.000119  -0.000156   0.000141
   53  P  2 YY   -0.000003  -0.000083  -0.000086   0.000247  -0.000074
   54  P  2 ZZ    0.000007   0.000172  -0.000033  -0.000091  -0.000067
   55  P  2 XY    0.000000   0.000006   0.000165   0.000015  -0.000183
   56  P  2 XZ   -0.000001  -0.000024   0.000141  -0.000004  -0.000113
   57  P  2 YZ   -0.000002  -0.000050   0.000063  -0.000048   0.000045
   58  P  2 XX   -0.000028  -0.000096   0.000275  -0.000112   0.000349
   59  P  2 YY   -0.000026  -0.000104  -0.000055   0.000534  -0.000038
   60  P  2 ZZ    0.000053   0.000199  -0.000220  -0.000422  -0.000310
   61  P  2 XY    0.000000  -0.000014   0.000197   0.000024  -0.000268
   62  P  2 XZ   -0.000005  -0.000026   0.000408   0.000022  -0.000307
   63  P  2 YZ   -0.000017  -0.000063   0.000257  -0.000196   0.000225
   64  P  2 XXX  -0.000002  -0.000033   0.000023  -0.000005  -0.000035
   65  P  2 YYY  -0.000005   0.000037  -0.000033  -0.000083  -0.000038
   66  P  2 ZZZ  -0.000014  -0.000246  -0.000071  -0.000032  -0.000061
   67  P  2 XXY  -0.000000  -0.000166   0.000046   0.000031   0.000057
   68  P  2 XXZ   0.000010   0.000152   0.000062   0.000035   0.000048
   69  P  2 YYX  -0.000001  -0.000006   0.000002  -0.000002  -0.000013
   70  P  2 YYZ   0.000009   0.000178   0.000033   0.000009   0.000035
   71  P  2 ZZX   0.000003   0.000051  -0.000033   0.000009   0.000060
   72  P  2 ZZY   0.000007   0.000117  -0.000002   0.000080  -0.000006
   73  P  2 XYZ  -0.000000  -0.000026   0.000025  -0.000005  -0.000020
   74  P  2 XX    0.000001   0.000026  -0.000001   0.000005  -0.000001
   75  P  2 YY    0.000001   0.000025   0.000003  -0.000003   0.000003
   76  P  2 ZZ   -0.000002  -0.000051  -0.000002  -0.000002  -0.000002
   77  P  2 XY   -0.000000  -0.000001  -0.000004  -0.000000   0.000004
   78  P  2 XZ    0.000000   0.000007  -0.000002   0.000001   0.000003
   79  P  2 YZ    0.000001   0.000015   0.000000   0.000001   0.000000
   80  O  3  S   -0.000001   0.975626   0.000026   0.000027   0.000028
   81  O  3  S   -0.000002  -0.001135   0.000039   0.000040   0.000042
[...]
            143  C  4 XXY     0.00133     0.07796
            144  C  4 XXZ     0.00083     0.07781
            145  C  4 YYX     0.00077     0.07054
            146  C  4 YYZ     0.00142     0.06695
            147  C  4 ZZX     0.00000     0.06890
            148  C  4 ZZY     0.00000     0.06573
            149  C  4 XYZ     0.00000     0.00279
            150  C  5  S      1.95557     1.55553
            151  C  5  S      0.82783     0.43056
            152  C  5  S      0.16163     0.27771
            153  C  5  S      0.33070     0.14795
            154  C  5  X      0.27435     0.21203
            155  C  5  Y      0.29427     0.22603
            156  C  5  Z      0.29140     0.22457
            157  C  5  X      0.51736     0.26643
            158  C  5  Y      0.53806     0.27908
            159  C  5  Z      0.53635     0.27999
            160  C  5  X      0.14026     0.18557
            161  C  5  Y      0.18807     0.20227
            162  C  5  Z      0.23265     0.20900
            163  C  5 XX      0.00521     0.08532
            164  C  5 YY      0.00507     0.08664
            165  C  5 ZZ      0.00447     0.08532
            166  C  5 XY      0.00419     0.00484
            167  C  5 XZ      0.00329     0.00472
            168  C  5 YZ      0.00000     0.00372
            169  C  5 XX      0.00830     0.09085
            170  C  5 YY      0.01244     0.08980
            171  C  5 ZZ      0.01186     0.08477
            172  C  5 XY      0.01081     0.02773
            173  C  5 XZ      0.00819     0.02542
            174  C  5 YZ      0.00000     0.01580
            175  C  5 XXX     0.00090     0.16001
            176  C  5 YYY     0.00069     0.17050
            177  C  5 ZZZ     0.00084     0.17029
            178  C  5 XXY     0.00134     0.07775
            179  C  5 XXZ     0.00074     0.07533
            180  C  5 YYX     0.00084     0.07098
            181  C  5 YYZ     0.00142     0.06612
            182  C  5 ZZX     0.00000     0.06791
            183  C  5 ZZY     0.00000     0.06599
            184  C  5 XYZ     0.00000     0.00293
            185  C  6  S      1.95557     1.55595
            186  C  6  S      0.82785     0.43274
            187  C  6  S      0.16164     0.27886
            188  C  6  S      0.33020     0.14885
            189  C  6  X      0.30080     0.22853
            190  C  6  Y      0.26073     0.20704
            191  C  6  Z      0.29849     0.22904
            192  C  6  X      0.54405     0.27949
            193  C  6  Y      0.50153     0.26597
            194  C  6  Z      0.54613     0.28082
            195  C  6  X      0.19962     0.20592
            196  C  6  Y      0.10861     0.17182
            197  C  6  Z      0.25183     0.21282
            198  C  6 XX      0.00574     0.08699
            199  C  6 YY      0.00587     0.09019
            200  C  6 ZZ      0.00378     0.08662
            201  C  6 XY      0.00413     0.00343
            202  C  6 XZ      0.00272     0.00438
            203  C  6 YZ      0.00000     0.00271
            204  C  6 XX      0.01047     0.08852
            205  C  6 YY      0.01455     0.10274
            206  C  6 ZZ      0.01061     0.08691
            207  C  6 XY      0.00834     0.02409
            208  C  6 XZ      0.00764     0.01853
            209  C  6 YZ      0.00000     0.01349
            210  C  6 XXX     0.00091     0.16261
            211  C  6 YYY     0.00089     0.16785
            212  C  6 ZZZ     0.00065     0.16830
            213  C  6 XXY     0.00142     0.07262
            214  C  6 XXZ     0.00092     0.07408
            215  C  6 YYX     0.00048     0.08068
            216  C  6 YYZ     0.00149     0.07258
            217  C  6 ZZX     0.00000     0.07255
            218  C  6 ZZY     0.00000     0.06312
            219  C  6 XYZ     0.00000     0.00256
            220  H  7  S      0.25258     0.19424
            221  H  7  S      0.45198     0.24419
            222  H  7  S      0.06032     0.11868
            223  H  7  X      0.00157     0.00203
            224  H  7  Y      0.00740     0.01082
            225  H  7  Z      0.00179     0.00236
            226  H  7  X      0.01047     0.02865
            227  H  7  Y      0.00547     0.04774
            228  H  7  Z      0.00827     0.02967
            229  H  7 XX      0.00034     0.06897
            230  H  7 YY      0.00064     0.11555
            231  H  7 ZZ      0.00101     0.07038
            232  H  7 XY      0.00009     0.00483
            233  H  7 XZ      0.00081     0.00016
            234  H  7 YZ      0.00000     0.00531
            235  H  8  S      0.24752     0.19095
            236  H  8  S      0.44863     0.23994
            237  H  8  S      0.04676     0.11439
            238  H  8  X      0.00168     0.00231
            239  H  8  Y      0.00173     0.00230
            240  H  8  Z      0.00736     0.01069
            241  H  8  X      0.01018     0.02907
            242  H  8  Y      0.00805     0.02855
            243  H  8  Z      0.00560     0.04771
            244  H  8 XX      0.00088     0.06886
            245  H  8 YY      0.00012     0.06917
            246  H  8 ZZ      0.00010     0.11307
            247  H  8 XY      0.00096     0.00023
            248  H  8 XZ      0.00081     0.00505
            249  H  8 YZ      0.00000     0.00510
            250  H  9  S      0.25255     0.18613
            251  H  9  S      0.45182     0.24193
            252  H  9  S      0.06005     0.11897
            253  H  9  X      0.00552     0.00728
            254  H  9  Y      0.00248     0.00347
            255  H  9  Z      0.00277     0.00387
            256  H  9  X      0.01055     0.04326
            257  H  9  Y      0.00696     0.03117
            258  H  9  Z      0.00669     0.03295
            259  H  9 XX      0.00053     0.09667
            260  H  9 YY      0.00086     0.07466
            261  H  9 ZZ      0.00060     0.07701
            262  H  9 XY      0.00061     0.00493
            263  H  9 XZ      0.00029     0.00527
            264  H  9 YZ      0.00000     0.00205
            265  H 10  S      0.25331     0.18806
            266  H 10  S      0.45336     0.24320
            267  H 10  S      0.06441     0.11997
            268  H 10  X      0.00593     0.00787
            269  H 10  Y      0.00262     0.00378
            270  H 10  Z      0.00218     0.00299
            271  H 10  X      0.00962     0.04434
            272  H 10  Y      0.00673     0.03182
            273  H 10  Z      0.00773     0.03169
            274  H 10 XX      0.00041     0.10060
            275  H 10 YY      0.00093     0.07698
            276  H 10 ZZ      0.00064     0.07237
            277  H 10 XY      0.00066     0.00561
            278  H 10 XZ      0.00024     0.00498
            279  H 10 YZ      0.00000     0.00150
            280  H 11  S      0.24726     0.19068
            281  H 11  S      0.44670     0.23956
            282  H 11  S      0.04475     0.11376
            283  H 11  X      0.00161     0.00210
            284  H 11  Y      0.00173     0.00232
            285  H 11  Z      0.00743     0.01084
            286  H 11  X      0.00934     0.02869
            287  H 11  Y      0.00794     0.02850
            288  H 11  Z      0.00629     0.04801
            289  H 11 XX      0.00092     0.06828
            290  H 11 YY      0.00010     0.06911
            291  H 11 ZZ      0.00009     0.11334
            292  H 11 XY      0.00094     0.00018
            293  H 11 XZ      0.00081     0.00498
            294  H 11 YZ      0.00000     0.00518
            295  H 12  S      0.25279     0.19446
            296  H 12  S      0.45092     0.24428
            297  H 12  S      0.06015     0.11873
            298  H 12  X      0.00159     0.00206
            299  H 12  Y      0.00739     0.01083
            300  H 12  Z      0.00179     0.00232
            301  H 12  X      0.01037     0.02833
            302  H 12  Y      0.00502     0.04770
            303  H 12  Z      0.00837     0.03012
            304  H 12 XX      0.00032     0.06897
            305  H 12 YY      0.00064     0.11571
            306  H 12 ZZ      0.00100     0.07043
            307  H 12 XY      0.00009     0.00485
            308  H 12 XZ      0.00083     0.00017
            309  H 12 YZ      0.00000     0.00526
            310  H 13  S      0.25330     0.18827
            311  H 13  S      0.45343     0.24279
            312  H 13  S      0.06441     0.11955
            313  H 13  X      0.00565     0.00727
            314  H 13  Y      0.00285     0.00442
            315  H 13  Z      0.00224     0.00309
            316  H 13  X      0.00374     0.04206
            317  H 13  Y      0.01282     0.03452
            318  H 13  Z      0.00754     0.03120
            319  H 13 XX      0.00042     0.09848
            320  H 13 YY      0.00081     0.07904
            321  H 13 ZZ      0.00076     0.07258
            322  H 13 XY      0.00061     0.00558
            323  H 13 XZ      0.00028     0.00480
            324  H 13 YZ      0.00000     0.00175
            325  H 14  S      0.25274     0.18655
            326  H 14  S      0.45085     0.24153
            327  H 14  S      0.05987     0.11853
            328  H 14  X      0.00534     0.00684
            329  H 14  Y      0.00266     0.00400
            330  H 14  Z      0.00278     0.00389
            331  H 14  X      0.00449     0.04107
            332  H 14  Y      0.01251     0.03339
            333  H 14  Z      0.00678     0.03279
            334  H 14 XX      0.00051     0.09528
            335  H 14 YY      0.00072     0.07625
            336  H 14 ZZ      0.00072     0.07704
            337  H 14 XY      0.00060     0.00493
            338  H 14 XZ      0.00032     0.00512
            339  H 14 YZ      0.00000     0.00220
            340  H 15  S      0.24728     0.19096
            341  H 15  S      0.44683     0.23962
            342  H 15  S      0.04492     0.11379
            343  H 15  X      0.00165     0.00216
            344  H 15  Y      0.00183     0.00269
            345  H 15  Z      0.00729     0.01052
            346  H 15  X      0.00789     0.02800
            347  H 15  Y      0.01117     0.03010
            348  H 15  Z      0.00452     0.04770
            349  H 15 XX      0.00086     0.06777
            350  H 15 YY      0.00016     0.07084
            351  H 15 ZZ      0.00010     0.11257
            352  H 15 XY      0.00078     0.00024
            353  H 15 XZ      0.00096     0.00516
            354  H 15 YZ      0.00000     0.00502

          ----- MULLIKEN ATOMIC OVERLAP POPULATIONS -----
          (OFF-DIAGONAL ELEMENTS NEED TO BE MULTIPLIED BY 2)

             1           2           3           4           5

    1    8.5891983
    2   -0.0114428  13.2690890
    3    0.0186973   0.2119954   8.5929130
    4   -0.0003254   0.3458222  -0.0172272   5.0015785
    5    0.0002800   0.3468559  -0.0158916  -0.0318019   5.0155728
    6    0.0002178   0.3468570  -0.0160842  -0.0318326  -0.0314962
    7    0.0004855  -0.0161871   0.0009041   0.3645679  -0.0026442
    8    0.0005444  -0.0137108   0.0010704   0.3591148  -0.0003576
    9    0.0004785  -0.0162375   0.0009037   0.3646543   0.0023101
   10    0.0007145  -0.0167895   0.0008058   0.0025062   0.3640741
   11    0.0003990  -0.0134663   0.0012582  -0.0005644   0.3578596
   12    0.0006215  -0.0174610   0.0009021  -0.0025844   0.3652403
   13    0.0007025  -0.0166775   0.0008186   0.0025056  -0.0029514
   14    0.0006019  -0.0173999   0.0009126  -0.0025588   0.0023377
   15    0.0004106  -0.0134604   0.0012419  -0.0005679  -0.0002835

             6           7           8           9          10

    6    5.0143934
    7    0.0023223   0.4819243
    8   -0.0003772  -0.0112336   0.4570375
    9   -0.0026178  -0.0178224  -0.0111762   0.4813592
   10   -0.0029486   0.0000046   0.0000124  -0.0000709   0.4903813
   11   -0.0002999  -0.0001842  -0.0000508   0.0000135  -0.0107155
   12    0.0023508   0.0006702  -0.0002309  -0.0000093  -0.0197609
   13    0.3639906  -0.0000711   0.0000121   0.0000045   0.0007579
   14    0.3652423  -0.0000084  -0.0002304   0.0006641  -0.0000090
   15    0.3579517   0.0000129  -0.0000499  -0.0001876  -0.0001904

            11          12          13          14          15

   11    0.4518275
   12   -0.0099216   0.4815181
   13   -0.0001862  -0.0000082   0.4903717
   14    0.0000175  -0.0000682  -0.0195939   0.4809502
   15   -0.0000720   0.0000173  -0.0108153  -0.0099652   0.4522121

          TOTAL MULLIKEN AND LOWDIN ATOMIC POPULATIONS
       ATOM         MULL.POP.    CHARGE          LOW.POP.     CHARGE
    1 LA            8.601583    2.398417         8.773258    2.226742
    2 P            14.367787    0.632213        14.309596    0.690404
    3 O             8.783220   -0.783220         8.417857   -0.417857
    4 C             6.353287   -0.353287         6.028405   -0.028405
    5 C             6.369104   -0.369104         6.029472   -0.029472
    6 C             6.367669   -0.367669         6.043388   -0.043388
    7 H             0.802741    0.197259         0.943568    0.056432
    8 H             0.780374    0.219626         0.927382    0.072618
    9 H             0.802266    0.197734         0.929641    0.070359
   10 H             0.808772    0.191228         0.935753    0.064247
   11 H             0.775914    0.224086         0.925522    0.074478
   12 H             0.801276    0.198724         0.944242    0.055758
   13 H             0.808860    0.191140         0.935392    0.064608
   14 H             0.800892    0.199108         0.929399    0.070601
   15 H             0.776254    0.223746         0.927125    0.072875

          MULLIKEN SPHERICAL HARMONIC POPULATIONS
       ATOM           S       P       D      F      G      H      I    TOTAL
    1 LA            2.00    6.10    0.50   0.00   0.00   0.00   0.00    8.60
    2 P             5.34    8.38    0.57   0.07   0.00   0.00   0.00   14.37
    3 O             3.78    4.96    0.04   0.00   0.00   0.00   0.00    8.78
    4 C             3.27    3.00    0.07   0.01   0.00   0.00   0.00    6.35
    5 C             3.28    3.01    0.07   0.01   0.00   0.00   0.00    6.37
    6 C             3.28    3.01    0.07   0.01   0.00   0.00   0.00    6.37
    7 H             0.76    0.03    0.00   0.00   0.00   0.00   0.00    0.80
    8 H             0.74    0.03    0.00   0.00   0.00   0.00   0.00    0.78
    9 H             0.76    0.03    0.00   0.00   0.00   0.00   0.00    0.80
   10 H             0.77    0.03    0.00   0.00   0.00   0.00   0.00    0.81
   11 H             0.74    0.03    0.00   0.00   0.00   0.00   0.00    0.78
   12 H             0.76    0.03    0.00   0.00   0.00   0.00   0.00    0.80
   13 H             0.77    0.03    0.00   0.00   0.00   0.00   0.00    0.81
   14 H             0.76    0.03    0.00   0.00   0.00   0.00   0.00    0.80
   15 H             0.74    0.03    0.00   0.00   0.00   0.00   0.00    0.78

          -------------------------------
          BOND ORDER AND VALENCE ANALYSIS     BOND ORDER THRESHOLD=0.050
          -------------------------------

                   BOND                       BOND                       BOND
  ATOM PAIR DIST  ORDER      ATOM PAIR DIST  ORDER      ATOM PAIR DIST  ORDER
    1   3  2.089  0.680        2   3  1.702  0.772        2   4  1.771  1.022
    2   5  1.773  1.017        2   6  1.772  1.017        4   7  1.089  0.875
    4   8  1.095  0.858        4   9  1.089  0.875        5  10  1.089  0.877
    5  11  1.095  0.857        5  12  1.089  0.876        6  13  1.089  0.877
    6  14  1.089  0.875        6  15  1.095  0.857

                       TOTAL       BONDED        FREE
      ATOM            VALENCE     VALENCE     VALENCE
    1 LA                0.669       0.748      -0.079
    2 P                 4.577       4.225       0.353
    3 O                 2.051       1.489       0.562
    4 C                 3.932       3.640       0.292
    5 C                 3.933       3.640       0.293
    6 C                 3.933       3.640       0.293
    7 H                 0.976       0.925       0.051
    8 H                 0.967       0.917       0.050
    9 H                 0.976       0.925       0.051
   10 H                 0.978       0.927       0.051
   11 H                 0.967       0.917       0.050
   12 H                 0.975       0.924       0.051
   13 H                 0.978       0.927       0.051
   14 H                 0.975       0.924       0.051
   15 H                 0.967       0.917       0.050

          ---------------------
          ELECTROSTATIC MOMENTS
          ---------------------

 POINT   1           X           Y           Z (BOHR)    CHARGE
                 0.189001    1.298944   -4.839750        3.00 (A.U.)
         DX          DY          DZ         /D/  (DEBYE)
     0.550362   -0.071949   -1.013222    1.155290
 ...... END OF PROPERTY EVALUATION ......
 CPU     0: STEP CPU TIME=     0.19 TOTAL CPU TIME=     1326.3 (   22.1 MIN)
 TOTAL WALL CLOCK TIME=     1347.0 SECONDS, CPU UTILIZATION IS  98.46%
  $VIB   
          IVIB=   0 IATOM=   0 ICOORD=   0 E=     -565.6098257962
 -3.397582396E-06-3.105599849E-06 1.179021880E-05 8.138290933E-05-6.277854951E-05
  8.087013001E-05 2.144069211E-05 1.195277534E-05-8.431524647E-05-1.262158095E-05
  1.075446008E-05-2.708695417E-05-3.451330310E-05 2.348830831E-05 1.962093612E-05
 -4.200585143E-05 1.183766699E-05 1.597840705E-05-7.885466146E-06-6.056199975E-08
 -4.370370755E-06-5.834829480E-07 2.008259601E-06-3.263226368E-07-3.654044728E-06
  6.308533367E-06 6.995705542E-07 4.990177188E-07 2.151006115E-05-3.059028097E-05
  4.734239359E-07-3.276980117E-05-2.484809781E-06-6.301686533E-06 1.593044663E-06
  2.479408000E-05-1.319591236E-05-5.094657400E-07-3.752533918E-05-9.753129610E-06
 -3.269616685E-06 2.575265420E-05 3.011599711E-05 1.304048547E-05 7.193327222E-06
  5.503621036E-01-7.194935101E-02-1.013222167E+00
 ......END OF GEOMETRY SEARCH......
 CPU     0: STEP CPU TIME=     0.02 TOTAL CPU TIME=     1326.3 (   22.1 MIN)
 TOTAL WALL CLOCK TIME=     1347.0 SECONDS, CPU UTILIZATION IS  98.46%
               2991967  WORDS OF DYNAMIC MEMORY USED
 EXECUTION OF GAMESS TERMINATED NORMALLY Fri Jun 10 00:17:18 2016
 DDI: 44487344 bytes (42.4 MB / 5 MWords) used by master data server.

 ----------------------------------------
 CPU timing information for all processes
 ========================================
 0: 1324.305 + 2.80 = 1326.386
 1: 1324.918 + 2.44 = 1326.963
 2: 1325.21 + 2.29 = 1327.51
 3: 1324.722 + 2.81 = 1326.804
 4: 1323.522 + 2.97 = 1325.620
 5: 1325.249 + 2.88 = 1327.338
 6: 1326.276 + 2.54 = 1328.331
 7: 1324.835 + 2.69 = 1326.905
 8: 1324.901 + 2.201 = 1327.103
 9: 1325.300 + 2.33 = 1327.334
 10: 1325.807 + 2.81 = 1327.889
 11: 1325.11 + 2.44 = 1327.56
 12: 1324.899 + 2.81 = 1326.981
 13: 1325.904 + 2.39 = 1327.944
 14: 1325.504 + 2.42 = 1327.547
 15: 1324.819 + 1.654 = 1326.474
 16: 0.18 + 0.59 = 0.78
 17: 0.19 + 0.63 = 0.83
 18: 0.20 + 0.60 = 0.81
 19: 0.18 + 0.56 = 0.75
 20: 0.18 + 0.53 = 0.72
 21: 0.08 + 0.69 = 0.78
 22: 0.18 + 0.56 = 0.75
 23: 0.19 + 0.54 = 0.74
 24: 0.11 + 0.69 = 0.81
 25: 0.12 + 0.61 = 0.74
 26: 0.15 + 0.63 = 0.79
 27: 0.15 + 0.61 = 0.77
 28: 0.14 + 0.64 = 0.79
 29: 0.19 + 0.56 = 0.76
 30: 0.15 + 0.65 = 0.81
 31: 0.28 + 0.56 = 0.85
 ----------------------------------------
unset echo
----- accounting info -----
Files used on the master node node240 were:
-rw-r--r-- 1 fzahari quantum     1964 Jun  9 23:54 /local/scratch/fzahari/196711.share/ang_var-1720.F05
-rw-r--r-- 1 fzahari quantum 17178000 Jun 10 00:17 /local/scratch/fzahari/196711.share/ang_var-1720.F10
-rw-r--r-- 1 fzahari quantum        8 Jun  9 23:54 /local/scratch/fzahari/196711.share/ang_var-1720.nodes.mpd
ls: No match.
ls: No match.
ls: No match.
Fri Jun 10 00:17:21 CDT 2016
21201.882u 38.003s 22:31.32 1571.7%	0+0k 104+208112io 0pf+0w
