----- GAMESS execution script 'rungms' -----
This job is running on host node196
under operating system Linux at Fri Jun 10 13:03:07 CDT 2016
PBS has assigned the following compute nodes to this run:
node196
Available scratch disk space (Kbyte units) at beginning of the job is
Filesystem           1K-blocks      Used Available Use% Mounted on
/dev/sda7            2670838024   1136528 2534030712   1% /local
GAMESS temporary binary files will be written to /local/scratch/fzahari/196755.share
GAMESS supplementary output files will be written to /work1/quantum/fzahari/scr
Copying input file ang_var-1680.inp to your run's scratch directory...
cp ang_var-1680.inp /local/scratch/fzahari/196755.share/ang_var-1680.F05
unset echo
setenv I_MPI_WAIT_MODE enable
setenv I_MPI_PIN disable
setenv I_MPI_DEBUG 0
setenv I_MPI_STATS 0
setenv I_MPI_FABRICS dapl
setenv I_MPI_DAT_LIBRARY libdat2.so
unset echo
MPI kickoff will run GAMESS on 16 cores in 1 nodes.
The binary to be executed is /home/mschmidt/gamess/gamess.132.x
MPI will run 16 compute processes and 16 data servers,
    placing 16 of each process type onto each node.
The scratch disk space on each node is /local/scratch/fzahari/196755.share, with free space
Filesystem           1K-blocks      Used Available Use% Mounted on
/dev/sda7            2670838024   1136552 2534030688   1% /local
setenv I_MPI_HYDRA_ENV all
setenv I_MPI_PERHOST 32
unset echo
mpiexec.hydra -f /local/scratch/fzahari/196755.share/ang_var-1680.processes.mpd -n 32 /home/mschmidt/gamess/gamess.132.x
          ******************************************************
          *         GAMESS VERSION =  5 DEC 2014 (R1)          *
          *             FROM IOWA STATE UNIVERSITY             *
          * M.W.SCHMIDT, K.K.BALDRIDGE, J.A.BOATZ, S.T.ELBERT, *
          *   M.S.GORDON, J.H.JENSEN, S.KOSEKI, N.MATSUNAGA,   *
          *          K.A.NGUYEN, S.J.SU, T.L.WINDUS,           *
          *       TOGETHER WITH M.DUPUIS, J.A.MONTGOMERY       *
          *         J.COMPUT.CHEM.  14, 1347-1363(1993)        *
          **************** 64 BIT INTEL VERSION ****************

  SINCE 1993, STUDENTS AND POSTDOCS WORKING AT IOWA STATE UNIVERSITY
  AND ALSO IN THEIR VARIOUS JOBS AFTER LEAVING ISU HAVE MADE IMPORTANT
  CONTRIBUTIONS TO THE CODE:
     IVANA ADAMOVIC, CHRISTINE AIKENS, YURI ALEXEEV, POOJA ARORA,
     ANDREY ASADCHEV, ROB BELL, PRADIPTA BANDYOPADHYAY, JONATHAN BENTZ,
     BRETT BODE, KURT BRORSEN, CALEB CARLIN, GALINA CHABAN, WEI CHEN,
     CHEOL HO CHOI, PAUL DAY, ALBERT DEFUSCO, NUWAN DESILVA, TIM DUDLEY,
     DMITRI FEDOROV, GRAHAM FLETCHER, MARK FREITAG, KURT GLAESEMANN,
     DAN KEMP, GRANT MERRILL, NORIYUKI MINEZAWA, JONATHAN MULLIN,
     TAKESHI NAGATA, SEAN NEDD, HEATHER NETZLOFF, BOSILJKA NJEGIC, RYAN OLSON,
     MIKE PAK, SPENCER PRUITT, LUKE ROSKOP, JIM SHOEMAKER, LYUDMILA SLIPCHENKO,
     TONY SMITH, SAROM SOK, JIE SONG, TETSUYA TAKETSUGU, SIMON WEBB,
     PENG XU, SOOHAENG YOO, FEDERICO ZAHARIEV

  ADDITIONAL CODE HAS BEEN PROVIDED BY COLLABORATORS IN OTHER GROUPS:
     IOWA STATE UNIVERSITY:
          JOE IVANIC, AARON WEST, LAIMUTIS BYTAUTAS, KLAUS RUEDENBERG
     UNIVERSITY OF TOKYO: KIMIHIKO HIRAO, TAKAHITO NAKAJIMA,
          TAKAO TSUNEDA, MUNEAKI KAMIYA, SUSUMU YANAGISAWA,
          KIYOSHI YAGI, MAHITO CHIBA, SEIKEN TOKURA, NAOAKI KAWAKAMI
     UNIVERSITY OF AARHUS: FRANK JENSEN
     UNIVERSITY OF IOWA: VISVALDAS KAIRYS, HUI LI
     NATIONAL INST. OF STANDARDS AND TECHNOLOGY: WALT STEVENS, DAVID GARMER
     UNIVERSITY OF PISA: BENEDETTA MENNUCCI, JACOPO TOMASI
     UNIVERSITY OF MEMPHIS: HENRY KURTZ, PRAKASHAN KORAMBATH
     UNIVERSITY OF ALBERTA: TOBY ZENG, MARIUSZ KLOBUKOWSKI
     UNIVERSITY OF NEW ENGLAND: MARK SPACKMAN
     MIE UNIVERSITY: HIROAKI UMEDA
     NAT. INST. OF ADVANCED INDUSTRIAL SCIENCE AND TECHNOLOGY: KAZUO KITAURA
     MICHIGAN STATE UNIVERSITY:
          KAROL KOWALSKI, MARTA WLOCH, JEFFREY GOUR, JESSE LUTZ,
          WEI LI, PIOTR PIECUCH
     UNIVERSITY OF SILESIA: MONIKA MUSIAL, STANISLAW KUCHARSKI
     FACULTES UNIVERSITAIRES NOTRE-DAME DE LA PAIX:
          OLIVIER QUINET, BENOIT CHAMPAGNE
     UNIVERSITY OF CALIFORNIA - SANTA BARBARA: BERNARD KIRTMAN
     INSTITUTE FOR MOLECULAR SCIENCE:
          KAZUYA ISHIMURA, MICHIO KATOUDA, AND SHIGERU NAGASE
     UNIVERSITY OF NOTRE DAME: ANNA POMOGAEVA, DAN CHIPMAN
     KYUSHU UNIVERSITY:
          HARUYUKI NAKANO,
          FENG LONG GU, JACEK KORCHOWIEC, MARCIN MAKOWSKI, AND YURIKO AOKI,
          HIROTOSHI MORI AND EISAKU MIYOSHI
     PENNSYLVANIA STATE UNIVERSITY:
          TZVETELIN IORDANOV, CHET SWALINA, JONATHAN SKONE,
          SHARON HAMMES-SCHIFFER
     WASEDA UNIVERSITY:
          MASATO KOBAYASHI, TOMOKO AKAMA, TSUGUKI TOUMA,
          TAKESHI YOSHIKAWA, YASUHIRO IKABATA, HIROMI NAKAI
     NANJING UNIVERSITY: SHUHUA LI
     UNIVERSITY OF NEBRASKA:
          PEIFENG SU, DEJUN SI, NANDUN THELLAMUREGE, YALI WANG, HUI LI
     UNIVERSITY OF ZURICH: ROBERTO PEVERATI, KIM BALDRIDGE
     N. COPERNICUS UNIVERSITY AND JACKSON STATE UNIVERSITY:
          MARIA BARYSZ
     UNIVERSITY OF COPENHAGEN: CASPER STEINMANN
     TOKYO INSTITUTE OF TECHNOLOGY: HIROYA NAKATA
     NAGOYA UNIVERSITY: YOSHIO NISHIMOTO, STEPHAN IRLE


 PARALLEL VERSION RUNNING ON       16 PROCESSORS IN        1 NODES.

 EXECUTION OF GAMESS BEGUN Fri Jun 10 13:03:08 2016

            ECHO OF THE FIRST FEW INPUT CARDS -
 INPUT CARD> $ZMAT DLC=.T. AUTO=.T. $END                                                    
 INPUT CARD> $ZMAT IFZMAT(1)=2, 1 , 3 , 2  FVALUE(1)= 168.0 $END                            
 INPUT CARD> $CONTRL COORD=UNIQUE NZVAR= 39 $END                                            
 INPUT CARD> $CONTRL ICHARG=+3 MULT=1                                                       
 INPUT CARD>         MPLEVL=2                                                               
 INPUT CARD>         SCFTYP=RHF                                                             
 INPUT CARD>         MAXIT=200 ISPHER=1 ICUT=11                                             
 INPUT CARD>         RUNTYP=OPTIMIZE                                                        
 INPUT CARD>         PP=READ                                                                
 INPUT CARD>         $END                                                                   
 INPUT CARD> $SCF    DIRSCF=.T. FDIFF=.F. $END                                              
 INPUT CARD> $TRANS  DIRTRF=.T. $END                                                        
 INPUT CARD> $SYSTEM MWORDS=300 MEMDDI=300 $END                                             
 INPUT CARD> $GUESS  GUESS=HUCKEL $END                                                      
 INPUT CARD> $BASIS  BASNAM(1)=METAL,                                                       
 INPUT CARD>                   LIGP,                                                        
 INPUT CARD>                   LIGO,                                                        
 INPUT CARD>                   LIGC,                                                        
 INPUT CARD>                   LIGC,                                                        
 INPUT CARD>                   LIGC,                                                        
 INPUT CARD>                   LIGH,                                                        
 INPUT CARD>                   LIGH,                                                        
 INPUT CARD>                   LIGH,                                                        
 INPUT CARD>                   LIGH,                                                        
 INPUT CARD>                   LIGH,                                                        
 INPUT CARD>                   LIGH,                                                        
 INPUT CARD>                   LIGH,                                                        
 INPUT CARD>                   LIGH,                                                        
 INPUT CARD>                   LIGH                                                         
 INPUT CARD> $END                                                                           
 INPUT CARD> $DATA                                                                          
 INPUT CARD>                                                                                
 INPUT CARD> C1                                                                             
 INPUT CARD> LA 57.0 0.31435 0.88028 -4.02887                                               
 INPUT CARD> P 15.0 -0.120142907705 0.337027914439 -0.314004464561                          
 INPUT CARD> O 8.0 -0.10013 0.67027 -1.98246                                                
 INPUT CARD> C 6.0 -1.59481189839 1.08180737595 0.326568931571                              
 INPUT CARD> C 6.0 1.34963255461 1.06366040871 0.357911516231                               
 INPUT CARD> C 6.0 -0.132675714016 -1.42794004155 -0.157618671737                           
 INPUT CARD> H 1.0 -1.58082029386 2.16311985778 0.195123889636                              
 INPUT CARD> H 1.0 -1.61258887386 0.869989057984 1.40108384222                              
 INPUT CARD> H 1.0 -2.48586066762 0.641902517478 -0.119753542926                            
 INPUT CARD> H 1.0 2.24452740226 0.612670895816 -0.0692522302488                            
 INPUT CARD> H 1.0 1.34184052195 0.851866452974 1.43255880276                               
 INPUT CARD> H 1.0 1.3518100662 2.14503559974 0.226289060393                                
 INPUT CARD> H 1.0 0.768133272848 -1.86892927736 -0.582795431663                            
 INPUT CARD> H 1.0 -1.0296370756 -1.85781558934 -0.601861007105                             
 INPUT CARD> H 1.0 -0.145398191857 -1.64824824966 0.915271794666                            
 INPUT CARD> $END                                                                           
 INPUT CARD>!                                                                               
  300000000 WORDS OF MEMORY AVAILABLE

     BASIS OPTIONS
     -------------
     GBASIS=             IGAUSS=       0      POLAR=NONE    
     NDFUNC=       0     NFFUNC=       0     DIFFSP=       F
     NPFUNC=       0      DIFFS=       F     BASNAM=METAL   

 USING BASNAM FOR ATOM CUSTOMIZED BASIS CONSTRUCTION
     ----------------
     ATOM  BASIS NAME
     ----------------
       1   METAL   
       2   LIGP    
       3   LIGO    
       4   LIGC    
       5   LIGC    
       6   LIGC    
       7   LIGH    
       8   LIGH    
       9   LIGH    
      10   LIGH    
      11   LIGH    
      12   LIGH    
      13   LIGH    
      14   LIGH    
      15   LIGH    
 NOW LOCATING ALL   15 BASIS SETS IN YOUR INPUT FILE...
 FOUND BASIS SET  $METAL 
  SBKJC                        
                               
  $END                         
 FOUND BASIS SET  $LIGP  
  CCT                          
                               
  $END                         
 FOUND BASIS SET  $LIGO  
  CCT                          
                               
  $END                         
 FOUND BASIS SET  $LIGC  
  CCT                          
                               
  $END                         
 FOUND BASIS SET  $LIGH  
  CCT                          
                               
  $END                         
    5 UNIQUE ATOM CUSTOMIZED BASIS SETS WERE FOUND.

     SEARCHING FOR $MCP
     $MCP GROUP NOT FOUND


     RUN TITLE
     ---------
                                                                                 

 THE POINT GROUP OF THE MOLECULE IS C1      
 THE ORDER OF THE PRINCIPAL AXIS IS     0

 ATOM      ATOMIC                      COORDINATES (BOHR)
           CHARGE         X                   Y                   Z
 LA         57.0     0.5940353642        1.6634879925       -7.6134603402
 P          15.0    -0.2270371749        0.6368904085       -0.5933823969
 O           8.0    -0.1892182632        1.2666266378       -3.7463061816
 C           6.0    -3.0137574899        2.0443195120        0.6171257968
 C           6.0     2.5504357123        2.0100267165        0.6763546935
 C           6.0    -0.2507207447       -2.6984154054       -0.2978561001
 H           1.0    -2.9873171912        4.0877038098        0.3687306851
 H           1.0    -3.0473511024        1.6440409319        2.6476645476
 H           1.0    -4.6975955055        1.2130198689       -0.2263013822
 H           1.0     4.2415417622        1.1577801137       -0.1308677392
 H           1.0     2.5357109057        1.6097941743        2.7071435985
 H           1.0     2.5545506126        4.0535295174        0.4276243182
 H           1.0     1.4515614077       -3.5317642246       -1.1013236727
 H           1.0    -1.9457319397       -3.5107623996       -1.1373523861
 H           1.0    -0.2747627417       -3.1147375516        1.7296128962

          INTERNUCLEAR DISTANCES (ANGS.)
          ------------------------------

                1 LA         2 P          3 O          4 C          5 C     

   1 LA      0.0000000    3.7794355    2.0984975 *  4.7597648    4.5110188  
   2 P       3.7794355    0.0000000    1.7015272 *  1.7719140 *  1.7719215 *
   3 O       2.0984975 *  1.7015272 *  0.0000000    2.7811961 *  2.7809902 *
   4 C       4.7597648    1.7719140 *  2.7811961 *  0.0000000    2.9446672 *
   5 C       4.5110188    1.7719215 *  2.7809902 *  2.9446672 *  0.0000000  
   6 C       4.5292713    1.7719271 *  2.7809334 *  2.9446752 *  2.9446701 *
   7 H       4.8041100    2.3931991 *  3.0270309    1.0893623 *  3.1341450  
   8 H       5.7617357    2.3351596 *  3.7115749    1.0953380 *  3.1465017  
   9 H       4.8144777    2.3931783 *  3.0269111    1.0893521 *  3.8880653  
  10 H       4.4131363    2.3932297 *  3.0267309    3.8880959    1.0893563 *
  11 H       5.5573149    2.3351526 *  3.7114161    3.1464287    1.0953466 *
  12 H       4.5587618    2.3932101 *  3.0268194    3.1341811    1.0893583 *
  13 H       4.4316476    2.3932259 *  3.0266277    3.8880972    3.1341910  
  14 H       4.5877946    2.3931943 *  3.0267563    3.1341327    3.8880727  
  15 H       5.5721954    2.3351829 *  3.7113913    3.1465179    3.1464609  

                6 C          7 H          8 H          9 H         10 H     

   1 LA      4.5292713    4.8041100    5.7617357    4.8144777    4.4131363  
   2 P       1.7719271 *  2.3931991 *  2.3351596 *  2.3931783 *  2.3932297 *
   3 O       2.7809334 *  3.0270309    3.7115749    3.0269111    3.0267309  
   4 C       2.9446752 *  1.0893623 *  1.0953380 *  1.0893521 *  3.8880959  
   5 C       2.9446701 *  3.1341450    3.1465017    3.8880653    1.0893563 *
   6 C       0.0000000    3.8880922    3.1464543    3.1341923    3.1341660  
   7 H       3.8880922    0.0000000    1.7684841 *  1.7978732 *  4.1360696  
   8 H       3.1464543    1.7684841 *  0.0000000    1.7684947 *  4.1358732  
   9 H       3.1341923    1.7978732 *  1.7684947 *  0.0000000    4.7307479  
  10 H       3.1341660    4.1360696    4.1358732    4.7307479    0.0000000  
  11 H       3.1464870    3.4340322    2.9546526 *  4.1358258    1.7684724 *
  12 H       3.8880893    2.9328517 *  3.4341735    4.1360454    1.7978961 *
  13 H       1.0893593 *  4.7307675    4.1358540    4.1360803    2.9328835 *
  14 H       1.0893502 *  4.1360500    3.4340267    2.9328494 *  4.1360765  
  15 H       1.0953500 *  4.1358888    2.9546880 *  3.4342150    3.4340628  

               11 H         12 H         13 H         14 H         15 H     

   1 LA      5.5573149    4.5587618    4.4316476    4.5877946    5.5721954  
   2 P       2.3351526 *  2.3932101 *  2.3932259 *  2.3931943 *  2.3351829 *
   3 O       3.7114161    3.0268194    3.0266277    3.0267563    3.7113913  
   4 C       3.1464287    3.1341811    3.8880972    3.1341327    3.1465179  
   5 C       1.0953466 *  1.0893583 *  3.1341910    3.8880727    3.1464609  
   6 C       3.1464870    3.8880893    1.0893593 *  1.0893502 *  1.0953500 *
   7 H       3.4340322    2.9328517 *  4.7307675    4.1360500    4.1358888  
   8 H       2.9546526 *  3.4341735    4.1358540    3.4340267    2.9546880 *
   9 H       4.1358258    4.1360454    4.1360803    2.9328494 *  3.4342150  
  10 H       1.7684724 *  1.7978961 *  2.9328835 *  4.1360765    3.4340628  
  11 H       0.0000000    1.7684662 *  3.4341698    4.1358369    2.9546638 *
  12 H       1.7684662 *  0.0000000    4.1360864    4.7307442    4.1358593  
  13 H       3.4341698    4.1360864    0.0000000    1.7979058 *  1.7684584 *
  14 H       4.1358369    4.7307442    1.7979058 *  0.0000000    1.7684708 *
  15 H       2.9546638 *  4.1358593    1.7684584 *  1.7684708 *  0.0000000  

  * ... LESS THAN  3.000


     ATOMIC BASIS SET
     ----------------
 THE CONTRACTED PRIMITIVE FUNCTIONS HAVE BEEN UNNORMALIZED
 THE CONTRACTED BASIS FUNCTIONS ARE NOW NORMALIZED TO UNITY

  SHELL TYPE  PRIMITIVE        EXPONENT          CONTRACTION COEFFICIENT(S)

 LA        

      1   L       1             9.1730000   -0.054833023521   -0.009797991527
      1   L       2             3.1200000    0.676604290237    0.231261800020
      1   L       3             2.1040000   -1.034429443730   -0.601214480110
      1   L       4             1.3200000   -0.518907222591    0.195188831214
      1   L       5             0.4960000    1.631603699894    1.076136069429

      2   D       6             1.2380000   -0.053797021791
      2   D       7             0.6061000    0.380144153981
      2   D       8             0.2518000    0.720349291785

      3   D       9             0.0978700    1.000000000000

      4   L      10             0.6182000   -0.107095028128   -0.051868986063
      4   L      11             0.0454600    1.033448271434    1.008107729120

      5   L      12             0.0177500    1.000000000000    1.000000000000

      6   L      13             0.2004000    1.000000000000    1.000000000000

      7   D      14             0.0353600    1.000000000000

 P         

      8   S      15        312400.0000000    0.000057689641
      8   S      16         46800.0000000    0.000448246591
      8   S      17         10650.0000000    0.002349131061
      8   S      18          3018.0000000    0.009781571802
      8   S      19           986.8000000    0.034142936511
      8   S      20           357.4000000    0.100192955985
      8   S      21           139.6000000    0.234346168617
      8   S      22            57.6300000    0.382391849918
      8   S      23            24.6000000    0.318052941833
      8   S      24            10.1200000    0.070770999093
      8   S      25             4.2830000   -0.001817789630
      8   S      26             1.8050000    0.002161561737
      8   S      27             0.2782000    0.000432249354

      9   S      28        312400.0000000   -0.000016380204
      9   S      29         46800.0000000   -0.000127233535
      9   S      30         10650.0000000   -0.000668625166
      9   S      31          3018.0000000   -0.002795303744
      9   S      32           986.8000000   -0.009928227435
      9   S      33           357.4000000   -0.030244566456
      9   S      34           139.6000000   -0.077884705328
      9   S      35            57.6300000   -0.156724571545
      9   S      36            24.6000000   -0.198042753651
      9   S      37            10.1200000    0.037971251521
      9   S      38             4.2830000    0.552751544147
      9   S      39             1.8050000    0.542611452452
      9   S      40             0.2782000   -0.009675942874

     10   S      41        312400.0000000    0.000006865735
     10   S      42         46800.0000000    0.000053281983
     10   S      43         10650.0000000    0.000280421002
     10   S      44          3018.0000000    0.001170789768
     10   S      45           986.8000000    0.004173591138
     10   S      46           357.4000000    0.012720496749
     10   S      47           139.6000000    0.033152766352
     10   S      48            57.6300000    0.067671246836
     10   S      49            24.6000000    0.089831018862
     10   S      50            10.1200000   -0.020305232360
     10   S      51             4.2830000   -0.313280408979
     10   S      52             1.8050000   -0.563687905527
     10   S      53             0.2782000    1.117494073734

     11   S      54             0.6158000    1.000000000000

     12   S      55             0.1055000    1.000000000000

     13   P      56           504.9000000    0.002433660431
     13   P      57           119.4000000    0.019305559477
     13   P      58            37.9600000    0.088473106893
     13   P      59            13.9500000    0.254701981099
     13   P      60             5.4570000    0.440199242653
     13   P      61             2.1770000    0.383632006272
     13   P      62             0.2877000   -0.003946337074

     14   P      63           504.9000000   -0.000954298933
     14   P      64           119.4000000   -0.007664025747
     14   P      65            37.9600000   -0.035465925259
     14   P      66            13.9500000   -0.106164716437
     14   P      67             5.4570000   -0.187210586037
     14   P      68             2.1770000   -0.181495819791
     14   P      69             0.2877000    0.991672644618

     15   P      70             0.8010000    1.000000000000

     16   P      71             0.0971400    1.000000000000

     17   D      72             0.6480000    1.000000000000

     18   D      73             0.2180000    1.000000000000

     19   F      74             0.4520000    1.000000000000

     20   D      75             3.1200000    1.000000000000

 O         

     21   S      76         15330.0000000    0.000520198307
     21   S      77          2299.0000000    0.004023344781
     21   S      78           522.4000000    0.020729083329
     21   S      79           147.3000000    0.081082327080
     21   S      80            47.5500000    0.236226352118
     21   S      81            16.7600000    0.443518209420
     21   S      82             6.2070000    0.358670588689
     21   S      83             0.6882000   -0.008349797237

     22   S      84         15330.0000000   -0.000197236012
     22   S      85          2299.0000000   -0.001535010700
     22   S      86           522.4000000   -0.007951183914
     22   S      87           147.3000000   -0.032113452892
     22   S      88            47.5500000   -0.100269643049
     22   S      89            16.7600000   -0.234047111838
     22   S      90             6.2070000   -0.301410927756
     22   S      91             0.6882000    1.034919649508

     23   S      92             1.7520000    1.000000000000

     24   S      93             0.2384000    1.000000000000

     25   P      94            34.4600000    0.041163489568
     25   P      95             7.7490000    0.257762835858
     25   P      96             2.2800000    0.802419274427

     26   P      97             0.7156000    1.000000000000

     27   P      98             0.2140000    1.000000000000

     28   D      99             2.3140000    1.000000000000

     29   D     100             0.6450000    1.000000000000

     30   F     101             1.4280000    1.000000000000

 C         

     31   S     102          8236.0000000    0.000542430189
     31   S     103          1235.0000000    0.004196427901
     31   S     104           280.8000000    0.021540914108
     31   S     105            79.2700000    0.083614949614
     31   S     106            25.5900000    0.239871618922
     31   S     107             8.9970000    0.443751820060
     31   S     108             3.3190000    0.353579696469
     31   S     109             0.3643000   -0.009176366076

     32   S     110          8236.0000000   -0.000196392234
     32   S     111          1235.0000000   -0.001525950274
     32   S     112           280.8000000   -0.007890449028
     32   S     113            79.2700000   -0.031514870532
     32   S     114            25.5900000   -0.096910008320
     32   S     115             8.9970000   -0.220541526288
     32   S     116             3.3190000   -0.296069112937
     32   S     117             0.3643000    1.040503432950

     33   S     118             0.9059000    1.000000000000

     34   S     119             0.1285000    1.000000000000

     35   P     120            18.7100000    0.039426387165
     35   P     121             4.1330000    0.244088984924
     35   P     122             1.2000000    0.815492008943

     36   P     123             0.3827000    1.000000000000

     37   P     124             0.1209000    1.000000000000

     38   D     125             1.0970000    1.000000000000

     39   D     126             0.3180000    1.000000000000

     40   F     127             0.7610000    1.000000000000

 C         

     41   S     128          8236.0000000    0.000542430189
     41   S     129          1235.0000000    0.004196427901
     41   S     130           280.8000000    0.021540914108
     41   S     131            79.2700000    0.083614949614
     41   S     132            25.5900000    0.239871618922
     41   S     133             8.9970000    0.443751820060
     41   S     134             3.3190000    0.353579696469
     41   S     135             0.3643000   -0.009176366076

     42   S     136          8236.0000000   -0.000196392234
     42   S     137          1235.0000000   -0.001525950274
     42   S     138           280.8000000   -0.007890449028
     42   S     139            79.2700000   -0.031514870532
     42   S     140            25.5900000   -0.096910008320
     42   S     141             8.9970000   -0.220541526288
     42   S     142             3.3190000   -0.296069112937
     42   S     143             0.3643000    1.040503432950

     43   S     144             0.9059000    1.000000000000

     44   S     145             0.1285000    1.000000000000

     45   P     146            18.7100000    0.039426387165
     45   P     147             4.1330000    0.244088984924
     45   P     148             1.2000000    0.815492008943

     46   P     149             0.3827000    1.000000000000

     47   P     150             0.1209000    1.000000000000

     48   D     151             1.0970000    1.000000000000

     49   D     152             0.3180000    1.000000000000

     50   F     153             0.7610000    1.000000000000

 C         

     51   S     154          8236.0000000    0.000542430189
     51   S     155          1235.0000000    0.004196427901
     51   S     156           280.8000000    0.021540914108
     51   S     157            79.2700000    0.083614949614
     51   S     158            25.5900000    0.239871618922
     51   S     159             8.9970000    0.443751820060
     51   S     160             3.3190000    0.353579696469
     51   S     161             0.3643000   -0.009176366076

     52   S     162          8236.0000000   -0.000196392234
     52   S     163          1235.0000000   -0.001525950274
     52   S     164           280.8000000   -0.007890449028
     52   S     165            79.2700000   -0.031514870532
     52   S     166            25.5900000   -0.096910008320
     52   S     167             8.9970000   -0.220541526288
     52   S     168             3.3190000   -0.296069112937
     52   S     169             0.3643000    1.040503432950

     53   S     170             0.9059000    1.000000000000

     54   S     171             0.1285000    1.000000000000

     55   P     172            18.7100000    0.039426387165
     55   P     173             4.1330000    0.244088984924
     55   P     174             1.2000000    0.815492008943

     56   P     175             0.3827000    1.000000000000

     57   P     176             0.1209000    1.000000000000

     58   D     177             1.0970000    1.000000000000

     59   D     178             0.3180000    1.000000000000

     60   F     179             0.7610000    1.000000000000

 H         

     61   S     180            33.8700000    0.025494863235
     61   S     181             5.0950000    0.190362765893
     61   S     182             1.1590000    0.852162022245

     62   S     183             0.3258000    1.000000000000

     63   S     184             0.1027000    1.000000000000

     64   P     185             1.4070000    1.000000000000

     65   P     186             0.3880000    1.000000000000

     66   D     187             1.0570000    1.000000000000

 H         

     67   S     188            33.8700000    0.025494863235
     67   S     189             5.0950000    0.190362765893
     67   S     190             1.1590000    0.852162022245

     68   S     191             0.3258000    1.000000000000

     69   S     192             0.1027000    1.000000000000

     70   P     193             1.4070000    1.000000000000

     71   P     194             0.3880000    1.000000000000

     72   D     195             1.0570000    1.000000000000

 H         

     73   S     196            33.8700000    0.025494863235
     73   S     197             5.0950000    0.190362765893
     73   S     198             1.1590000    0.852162022245

     74   S     199             0.3258000    1.000000000000

     75   S     200             0.1027000    1.000000000000

     76   P     201             1.4070000    1.000000000000

     77   P     202             0.3880000    1.000000000000

     78   D     203             1.0570000    1.000000000000

 H         

     79   S     204            33.8700000    0.025494863235
     79   S     205             5.0950000    0.190362765893
     79   S     206             1.1590000    0.852162022245

     80   S     207             0.3258000    1.000000000000

     81   S     208             0.1027000    1.000000000000

     82   P     209             1.4070000    1.000000000000

     83   P     210             0.3880000    1.000000000000

     84   D     211             1.0570000    1.000000000000

 H         

     85   S     212            33.8700000    0.025494863235
     85   S     213             5.0950000    0.190362765893
     85   S     214             1.1590000    0.852162022245

     86   S     215             0.3258000    1.000000000000

     87   S     216             0.1027000    1.000000000000

     88   P     217             1.4070000    1.000000000000

     89   P     218             0.3880000    1.000000000000

     90   D     219             1.0570000    1.000000000000

 H         

     91   S     220            33.8700000    0.025494863235
     91   S     221             5.0950000    0.190362765893
     91   S     222             1.1590000    0.852162022245

     92   S     223             0.3258000    1.000000000000

     93   S     224             0.1027000    1.000000000000

     94   P     225             1.4070000    1.000000000000

     95   P     226             0.3880000    1.000000000000

     96   D     227             1.0570000    1.000000000000

 H         

     97   S     228            33.8700000    0.025494863235
     97   S     229             5.0950000    0.190362765893
     97   S     230             1.1590000    0.852162022245

     98   S     231             0.3258000    1.000000000000

     99   S     232             0.1027000    1.000000000000

    100   P     233             1.4070000    1.000000000000

    101   P     234             0.3880000    1.000000000000

    102   D     235             1.0570000    1.000000000000

 H         

    103   S     236            33.8700000    0.025494863235
    103   S     237             5.0950000    0.190362765893
    103   S     238             1.1590000    0.852162022245

    104   S     239             0.3258000    1.000000000000

    105   S     240             0.1027000    1.000000000000

    106   P     241             1.4070000    1.000000000000

    107   P     242             0.3880000    1.000000000000

    108   D     243             1.0570000    1.000000000000

 H         

    109   S     244            33.8700000    0.025494863235
    109   S     245             5.0950000    0.190362765893
    109   S     246             1.1590000    0.852162022245

    110   S     247             0.3258000    1.000000000000

    111   S     248             0.1027000    1.000000000000

    112   P     249             1.4070000    1.000000000000

    113   P     250             0.3880000    1.000000000000

    114   D     251             1.0570000    1.000000000000

 TOTAL NUMBER OF BASIS SET SHELLS             =  114
 NUMBER OF CARTESIAN GAUSSIAN BASIS FUNCTIONS =  354
 NOTE: THIS RUN WILL RESTRICT THE MO VARIATION SPACE TO SPHERICAL HARMONICS.
 THE NUMBER OF ORBITALS KEPT IN THE VARIATIONAL SPACE WILL BE PRINTED LATER.
 NUMBER OF ELECTRONS                          =  104
 CHARGE OF MOLECULE                           =    3
 SPIN MULTIPLICITY                            =    1
 NUMBER OF OCCUPIED ORBITALS (ALPHA)          =   52
 NUMBER OF OCCUPIED ORBITALS (BETA )          =   52
 TOTAL NUMBER OF ATOMS                        =   15
 THE NUCLEAR REPULSION ENERGY IS      664.6971013427
 NOTE THIS RUN IS USING CORE POTENTIALS, AND THE NUMBER OF ELECTRONS,
 OCCUPIED ORBITALS, AND NUCLEAR REPULSION ENERGY WILL BE ADJUSTED BELOW
 AFTER REMOVAL OF THE CORE CHARGES.

     $CONTRL OPTIONS
     ---------------
 SCFTYP=RHF          RUNTYP=OPTIMIZE     EXETYP=RUN     
 MPLEVL=       2     CITYP =NONE         CCTYP =NONE         VBTYP =NONE    
 DFTTYP=NONE         TDDFT =NONE    
 MULT  =       1     ICHARG=       3     NZVAR =      39     COORD =UNIQUE  
 PP    =READ         RELWFN=NONE         LOCAL =NONE         NUMGRD=       F
 ISPHER=       1     NOSYM =       0     MAXIT =     200     UNITS =ANGS    
 PLTORB=       F     MOLPLT=       F     AIMPAC=       F     FRIEND=        
 NPRINT=       7     IREST =       0     GEOM  =INPUT   
 NORMF =       0     NORMP =       0     ITOL  =      20     ICUT  =      11
 INTTYP=BEST         GRDTYP=BEST         QMTTOL= 1.0E-06

     $SYSTEM OPTIONS
     ---------------
  REPLICATED MEMORY=   300000000 WORDS (ON EVERY NODE).
 DISTRIBUTED MEMDDI=         300 MILLION WORDS IN AGGREGATE,
 MEMDDI DISTRIBUTED OVER  16 PROCESSORS IS    18750000 WORDS/PROCESSOR.
 TOTAL MEMORY REQUESTED ON EACH PROCESSOR=   318750000 WORDS.
 TIMLIM=      525600.00 MINUTES, OR     365.0 DAYS.
 PARALL= T  BALTYP=  DLB     KDIAG=    0  COREFL= F
 MXSEQ2=     300 MXSEQ3=     150  mem10=         0

          --------------
          ECP POTENTIALS
          --------------

 PARAMETERS FOR "LA-ECP  " ON ATOM    1 WITH ZCORE  46 AND LMAX  4 ARE
 FOR L= 4      COEFF    N           ZETA
    1       -2.85665    1        1.42345
 FOR L= 0      COEFF    N           ZETA
    1        8.85347    0       22.29739
    2      -68.41778    2        1.64320
    3      110.12463    2        1.85122
 FOR L= 1      COEFF    N           ZETA
    1        2.98675    0        1.77635
    2      -35.51815    2        3.98941
    3       53.65423    2        2.47524
 FOR L= 2      COEFF    N           ZETA
    1        1.67298    0        1.52169
    2       18.46625    2        1.52182
 FOR L= 3      COEFF    N           ZETA
    1       -4.64430    1        2.67762
    2      -14.43101    1       10.06608

 THE ECP RUN REMOVES   46 CORE ELECTRONS, AND THE SAME NUMBER OF PROTONS.
 NUMBER OF ELECTRONS KEPT IN THE CALCULATION IS =   58
 NUMBER OF OCCUPIED ORBITALS (ALPHA) KEPT IS    =   29
 NUMBER OF OCCUPIED ORBITALS (BETA ) KEPT IS    =   29
 THE ADJUSTED NUCLEAR REPULSION ENERGY=      335.2295335260
          ECP ANGULAR INTS.........     0.02 SECONDS

          ----------------
          PROPERTIES INPUT
          ----------------

     MOMENTS            FIELD           POTENTIAL          DENSITY
 IEMOM =       1   IEFLD =       0   IEPOT =       0   IEDEN =       0
 WHERE =COMASS     WHERE =NUCLEI     WHERE =NUCLEI     WHERE =NUCLEI  
 OUTPUT=BOTH       OUTPUT=BOTH       OUTPUT=BOTH       OUTPUT=BOTH    
 IEMINT=       0   IEFINT=       0                     IEDINT=       0
                                                       MORB  =       0
          EXTRAPOLATION IN EFFECT
          SOSCF IN EFFECT
 ORBITAL PRINTING OPTION: NPREO=     1   354     2     1

     -------------------------------
     INTEGRAL TRANSFORMATION OPTIONS
     -------------------------------
     NWORD  =            0
     CUTOFF = 1.0E-09     MPTRAN =       0
     DIRTRF =       T     AOINTS =DUP     

          ----------------------
          INTEGRAL INPUT OPTIONS
          ----------------------
 NOPK  =       1 NORDER=       0 SCHWRZ=       T

          -----------------------
          MP2 CONTROL INFORMATION
          -----------------------
          NACORE =       13  NBCORE =       13
          LMOMP2 =        F  AOINTS = DUP     
          METHOD =        2  NWORD  =               0
          MP2PRP =        F  OSPT   = NONE    
          CUTOFF = 1.00E-09  CPHFBS = BASISAO 
          CODE   = DDI     

          NUMBER OF CORE -A-  ORBITALS =    13
          NUMBER OF CORE -B-  ORBITALS =    13
          NUMBER OF OCC. -A-  ORBITALS =    29
          NUMBER OF OCC. -B-  ORBITALS =    29
          NUMBER OF MOLECULAR ORBITALS =   354
          NUMBER OF   BASIS  FUNCTIONS =   354

 
 
 -----------------------------------------------
  STATISTICS ON AUTOMATIC COORDINATE GENERATION 
 -----------------------------------------------
  NUMBER OF USER SPECIFIED BONDS                              0
  NUMBER OF BONDS                                            14
  NUMBER OF ANGLES                                           25
  NUMBER OF TORSIONS                                         30
  NUMBER OF EXTRA COORD.                                      0
  NUMBER OF EXTRA COORD. FOR CONSTRAINTS                      0
  NUMBER OF CONSTRAINED COORD.                                1
 
  TOTAL NUMBER OF PRIMITIVES                                 69
 -----------------------------------------------

   --- ENCODED Z MATRIX ---
 COORD  TYPE   I   J   K   L   M   N
    1      2    1   3   2
    2      1    1   3
    3      1    2   4
    4      1    2   3
    5      1    2   6
    6      1    2   5
    7      1    4   8
    8      1    4   7
    9      1    4   9
   10      1    5  12
   11      1    5  11
   12      1    5  10
   13      1    6  15
   14      1    6  14
   15      1    6  13
   16      2    2   5  11
   17      2    2   4   8
   18      2    2   6  13
   19      2    2   6  14
   20      2    2   4   9
   21      2    2   5  12
   22      2    2   5  10
   23      2    2   4   7
   24      2    2   6  15
   25      2    3   2   4
   26      2    3   2   5
   27      2    3   2   6
   28      2    4   2   6
   29      2    4   2   5
   30      2    5   2   6
   31      2    7   4   9
   32      2    7   4   8
   33      2    8   4   9
   34      2   10   5  11
   35      2   10   5  12
   36      2   11   5  12
   37      2   13   6  14
   38      2   13   6  15
   39      2   14   6  15
   40      3    1   3   2   5
   41      3    1   3   2   4
   42      3    1   3   2   6
   43      3    3   2   4   8
   44      3    3   2   6  15
   45      3    3   2   6  14
   46      3    3   2   4   7
   47      3    3   2   5  10
   48      3    3   2   6  13
   49      3    3   2   5  11
   50      3    3   2   5  12
   51      3    3   2   4   9
   52      3    4   2   6  15
   53      3    4   2   6  14
   54      3    4   2   5  10
   55      3    4   2   6  13
   56      3    4   2   5  12
   57      3    4   2   5  11
   58      3    5   2   6  15
   59      3    5   2   6  14
   60      3    5   2   4   7
   61      3    5   2   6  13
   62      3    5   2   4   9
   63      3    5   2   4   8
   64      3    6   2   4   7
   65      3    6   2   5  10
   66      3    6   2   5  11
   67      3    6   2   5  12
   68      3    6   2   4   9
   69      3    6   2   4   8

          INDEP./SYM. INTERNAL COORDINATES
          --------------------------------
 CRD  1=   1.0000 (  1)
 CRD  2=   0.1039 ( 16) -0.1322 ( 20) -0.1020 ( 22)  0.1283 ( 23) -0.1119 ( 24)
          -0.2989 ( 26)  0.3221 ( 27) -0.4179 ( 28)  0.4503 ( 29) -0.1556 ( 40)
           0.2027 ( 41) -0.1298 ( 42)  0.1176 ( 46)  0.1133 ( 51) -0.1365 ( 53)
          -0.1227 ( 56)  0.1618 ( 58)  0.1012 ( 59)  0.1604 ( 61)  0.1529 ( 65)
           0.1638 ( 66) -0.1021 ( 69)
 CRD  3=  -0.3297 (  3)  0.1507 (  5)  0.1880 (  6)  0.2279 ( 18) -0.1458 ( 19)
          -0.1230 ( 21)  0.2239 ( 22) -0.2387 ( 28) -0.1915 ( 29)  0.4176 ( 30)
           0.2329 ( 40) -0.2510 ( 42)  0.1735 ( 44) -0.1610 ( 49) -0.1295 ( 59)
          -0.1008 ( 60) -0.1244 ( 61) -0.1056 ( 63)  0.1090 ( 64)  0.1316 ( 65)
           0.1370 ( 67)  0.1111 ( 68)  0.1042 ( 69)
 CRD  4=   0.3567 (  5) -0.3310 (  6)  0.2003 ( 19)  0.1495 ( 20) -0.2073 ( 21)
          -0.1697 ( 23) -0.2263 ( 26)  0.2438 ( 27)  0.1029 ( 28) -0.1109 ( 29)
           0.1072 ( 35) -0.1155 ( 37) -0.2132 ( 41)  0.2658 ( 43) -0.1153 ( 44)
          -0.1207 ( 45)  0.2054 ( 46) -0.1448 ( 49) -0.1415 ( 50)  0.2013 ( 51)
           0.1274 ( 54)  0.1165 ( 55) -0.1361 ( 60) -0.1402 ( 62) -0.1319 ( 64)
          -0.1360 ( 68)
 CRD  5=   0.3889 (  3)  0.4041 (  5)  0.4052 (  6)  0.2725 ( 16)  0.2721 ( 17)
           0.2725 ( 24) -0.1171 ( 32) -0.1170 ( 33) -0.1214 ( 34) -0.1208 ( 36)
          -0.1211 ( 38) -0.1205 ( 39)  0.1207 ( 54) -0.1210 ( 55)  0.1160 ( 59)
          -0.1198 ( 62)  0.1202 ( 64) -0.1160 ( 67)
 CRD  6=   0.1963 (  2)  0.3006 (  3)  0.3408 (  4)  0.2127 (  5)  0.2059 (  6)
          -0.2209 ( 16) -0.2280 ( 17)  0.1966 ( 18)  0.1873 ( 19)  0.2321 ( 20)
           0.1845 ( 21)  0.1931 ( 22)  0.2327 ( 23) -0.2214 ( 24) -0.1839 ( 31)
          -0.1474 ( 35) -0.1501 ( 37) -0.1389 ( 54)  0.1400 ( 55) -0.1125 ( 59)
           0.1266 ( 62) -0.1286 ( 64)  0.1134 ( 67)
 CRD  7=   0.3560 (  3) -0.1810 (  5) -0.2226 (  6) -0.1035 ( 14)  0.3013 ( 17)
           0.3134 ( 18) -0.4092 ( 19) -0.3884 ( 21)  0.2822 ( 22) -0.1572 ( 32)
          -0.1392 ( 33)  0.1895 ( 36)  0.1825 ( 39)
 CRD  8=   0.2831 (  5) -0.2627 (  6)  0.1065 (  8) -0.1055 (  9) -0.2938 ( 16)
           0.1534 ( 18) -0.1956 ( 19) -0.4006 ( 20)  0.2388 ( 21) -0.1997 ( 22)
           0.4037 ( 23)  0.3166 ( 24) -0.1313 ( 32)  0.1500 ( 33)  0.1972 ( 34)
          -0.1909 ( 38)
 CRD  9=   0.1434 (  2)  0.2168 (  4)  0.3713 ( 16) -0.3954 ( 17) -0.1537 ( 18)
          -0.2074 ( 19)  0.2258 ( 20) -0.2372 ( 21) -0.1872 ( 22)  0.2297 ( 23)
           0.3162 ( 24) -0.1787 ( 31)  0.1807 ( 35)  0.1549 ( 37)  0.1271 ( 53)
          -0.1303 ( 56)
 CRD 10=  -0.1000 (  8)  0.1006 (  9)  0.3486 ( 18) -0.3843 ( 19)  0.3792 ( 20)
           0.3821 ( 21) -0.3490 ( 22) -0.3766 ( 23)  0.1341 ( 32) -0.1334 ( 33)
           0.1327 ( 34) -0.1245 ( 36) -0.1334 ( 38)  0.1245 ( 39)
 CRD 11=   0.1174 ( 11) -0.1096 ( 12) -0.1265 ( 13)  0.1061 ( 15)  0.4217 ( 16)
           0.3494 ( 18)  0.1116 ( 19) -0.2107 ( 20) -0.3570 ( 22)  0.1776 ( 23)
          -0.4544 ( 24)  0.1933 ( 35) -0.1406 ( 36) -0.2082 ( 37)  0.1379 ( 39)
 CRD 12=   0.3482 (  2)  0.5439 (  4)  0.1647 (  7)  0.4312 ( 17) -0.1966 ( 18)
          -0.1852 ( 20) -0.1753 ( 22) -0.2057 ( 23)  0.1329 ( 25)  0.1951 ( 31)
          -0.1068 ( 32) -0.1152 ( 33)
 CRD 13=   0.1614 (  2) -0.1986 (  3)  0.2982 (  4)  0.1136 (  6) -0.1056 ( 10)
           0.1103 ( 11) -0.1019 ( 14)  0.1574 ( 16)  0.1235 ( 18) -0.1388 ( 19)
          -0.1232 ( 21)  0.1202 ( 22)  0.1412 ( 24) -0.2279 ( 25)  0.1590 ( 26)
           0.1312 ( 27)  0.1432 ( 28)  0.1107 ( 29) -0.3085 ( 30)  0.1010 ( 33)
          -0.1549 ( 34) -0.1462 ( 38) -0.1012 ( 40)  0.1090 ( 42) -0.1612 ( 52)
          -0.1650 ( 53)  0.1315 ( 54) -0.1365 ( 55)  0.1664 ( 56)  0.1586 ( 57)
          -0.1489 ( 58) -0.1527 ( 59)  0.1425 ( 60) -0.1243 ( 61)  0.1157 ( 63)
           0.1020 ( 65)  0.1292 ( 66)  0.1370 ( 67) -0.1217 ( 68)
 CRD 14=  -0.2049 ( 43) -0.2115 ( 44) -0.1825 ( 45) -0.1765 ( 46) -0.1836 ( 47)
          -0.1831 ( 48) -0.2121 ( 49) -0.1830 ( 50) -0.1764 ( 51) -0.2109 ( 52)
          -0.1818 ( 53) -0.1829 ( 54) -0.1825 ( 55) -0.1823 ( 56) -0.2113 ( 57)
          -0.2114 ( 58) -0.1823 ( 59) -0.1774 ( 60) -0.1830 ( 61) -0.1773 ( 62)
          -0.2058 ( 63) -0.1774 ( 64) -0.1833 ( 65) -0.2118 ( 66) -0.1827 ( 67)
          -0.1773 ( 68) -0.2058 ( 69)
 CRD 15=  -0.1930 ( 10) -0.1374 ( 12)  0.2016 ( 14)  0.1544 ( 15)  0.2940 ( 43)
          -0.1248 ( 44) -0.1012 ( 45)  0.2768 ( 46) -0.1697 ( 47) -0.1402 ( 48)
          -0.1572 ( 49) -0.1335 ( 50)  0.2796 ( 51) -0.1239 ( 54) -0.1008 ( 55)
          -0.1114 ( 57) -0.1070 ( 58)  0.2116 ( 60) -0.1225 ( 61)  0.2145 ( 62)
           0.2289 ( 63)  0.2132 ( 64) -0.1440 ( 65) -0.1315 ( 66) -0.1078 ( 67)
           0.2160 ( 68)  0.2305 ( 69)
 CRD 16=   0.4252 (  7)  0.3565 (  8)  0.3501 (  9) -0.2441 ( 10) -0.2394 ( 11)
          -0.1607 ( 12) -0.1921 ( 13) -0.2077 ( 14) -0.1179 ( 15) -0.1302 ( 17)
           0.1148 ( 18) -0.1751 ( 20)  0.1314 ( 22) -0.1699 ( 23)  0.2016 ( 31)
           0.1381 ( 32)  0.1410 ( 33) -0.1131 ( 35)
 CRD 17=   0.2477 ( 10)  0.3597 ( 11)  0.3124 ( 12) -0.3873 ( 13) -0.2755 ( 14)
          -0.3275 ( 15) -0.1035 ( 16)  0.1339 ( 18)  0.1691 ( 19) -0.1627 ( 21)
          -0.1187 ( 22)  0.1115 ( 24)  0.1665 ( 35)  0.1232 ( 36) -0.1793 ( 37)
          -0.1105 ( 38) -0.1294 ( 39)  0.1104 ( 60)  0.1110 ( 62)  0.1072 ( 63)
           0.1091 ( 64)  0.1097 ( 68)  0.1059 ( 69)
 CRD 18=  -0.1025 (  3) -0.2700 (  7) -0.3116 (  8) -0.3117 (  9) -0.2996 ( 10)
          -0.2636 ( 11) -0.2975 ( 12) -0.2640 ( 13) -0.3006 ( 14) -0.2983 ( 15)
           0.1113 ( 16)  0.1158 ( 17)  0.1005 ( 18)  0.1006 ( 19)  0.1038 ( 20)
           0.1003 ( 21)  0.1003 ( 22)  0.1037 ( 23)  0.1116 ( 24) -0.1105 ( 31)
          -0.1084 ( 32) -0.1084 ( 33) -0.1042 ( 34) -0.1072 ( 35) -0.1043 ( 36)
          -0.1074 ( 37) -0.1045 ( 38) -0.1046 ( 39)
 CRD 19=  -0.2011 (  3)  0.1005 (  5)  0.1239 (  6) -0.2436 (  8) -0.2645 (  9)
           0.2753 ( 12)  0.2574 ( 15) -0.1245 ( 25)  0.1034 ( 28) -0.2073 ( 30)
           0.2029 ( 44)  0.1883 ( 45) -0.1932 ( 47)  0.2058 ( 48) -0.1883 ( 49)
          -0.1725 ( 50)  0.1485 ( 52)  0.1338 ( 53) -0.1360 ( 54)  0.1513 ( 55)
          -0.1152 ( 56) -0.1310 ( 57)  0.1720 ( 58)  0.1573 ( 59)  0.1748 ( 61)
          -0.1713 ( 65) -0.1663 ( 66) -0.1505 ( 67)
 CRD 20=   0.1434 (  8) -0.1731 (  9)  0.4101 ( 11) -0.2998 ( 12) -0.4422 ( 13)
           0.1232 ( 14)  0.2963 ( 15) -0.2062 ( 35)  0.1652 ( 36)  0.2224 ( 37)
          -0.1631 ( 39) -0.1283 ( 45)  0.1028 ( 47)  0.1130 ( 48) -0.1209 ( 50)
          -0.1316 ( 53)  0.1003 ( 54)  0.1096 ( 55) -0.1234 ( 56) -0.1207 ( 59)
           0.1206 ( 61)  0.1106 ( 65) -0.1132 ( 67)
 CRD 21=   0.4088 (  7) -0.1863 (  8) -0.1559 (  9)  0.3266 ( 10) -0.3091 ( 11)
          -0.2579 ( 13)  0.3199 ( 14) -0.1013 ( 15) -0.2135 ( 31)  0.1103 ( 33)
          -0.1740 ( 34)  0.1566 ( 35)  0.1302 ( 37) -0.1687 ( 38) -0.1039 ( 44)
           0.1096 ( 46) -0.1111 ( 51) -0.1058 ( 52) -0.1067 ( 58)  0.1110 ( 60)
          -0.1097 ( 62)  0.1085 ( 64) -0.1122 ( 68)
 CRD 22=  -0.4366 (  7)  0.1962 (  8)  0.1914 (  9)  0.1276 ( 10) -0.3476 ( 11)
           0.1917 ( 12) -0.3534 ( 13)  0.1275 ( 14)  0.1961 ( 15)  0.2209 ( 31)
          -0.1092 ( 32) -0.1115 ( 33)  0.1742 ( 35) -0.1046 ( 36)  0.1772 ( 37)
          -0.1070 ( 39) -0.1184 ( 46)  0.1186 ( 51) -0.1085 ( 54)  0.1099 ( 55)
          -0.1132 ( 59) -0.1028 ( 60)  0.1343 ( 62) -0.1340 ( 64)  0.1115 ( 67)
           0.1030 ( 68)
 CRD 23=  -0.3374 (  8)  0.3379 (  9)  0.3103 ( 10) -0.3062 ( 12) -0.3128 ( 14)
           0.3083 ( 15) -0.1808 ( 32)  0.1804 ( 33) -0.1688 ( 34)  0.1646 ( 36)
           0.1700 ( 38) -0.1655 ( 39)  0.1325 ( 43)  0.1199 ( 44)  0.1189 ( 49)
           0.1199 ( 52)  0.1188 ( 57)  0.1200 ( 58)  0.1325 ( 63)  0.1190 ( 66)
           0.1324 ( 69)
 CRD 24=   0.4015 (  8) -0.3895 (  9)  0.3106 ( 10) -0.1513 ( 11) -0.1561 ( 12)
           0.1631 ( 13) -0.2714 ( 14)  0.1049 ( 15)  0.2197 ( 32) -0.2271 ( 33)
          -0.1802 ( 34)  0.1584 ( 38) -0.1281 ( 43)  0.1070 ( 46) -0.1141 ( 47)
          -0.1053 ( 48)  0.1147 ( 51) -0.1259 ( 54) -0.1161 ( 55)  0.1204 ( 60)
          -0.1061 ( 61)  0.1281 ( 62) -0.1148 ( 63)  0.1196 ( 64) -0.1167 ( 65)
           0.1273 ( 68) -0.1155 ( 69)
 CRD 25=   0.2510 (  7) -0.1019 (  9) -0.2498 ( 10) -0.1376 ( 11)  0.3309 ( 12)
          -0.1097 ( 13) -0.2810 ( 14)  0.3448 ( 15) -0.1624 ( 31)  0.1543 ( 34)
          -0.2212 ( 36)  0.1763 ( 38) -0.2284 ( 39) -0.1560 ( 45)  0.1555 ( 50)
          -0.1639 ( 53) -0.1009 ( 55)  0.1606 ( 56) -0.1733 ( 59) -0.1104 ( 61)
           0.1084 ( 64)  0.1739 ( 67)
 CRD 26=  -0.2260 (  5)  0.2098 (  6)  0.1673 (  8) -0.1359 (  9)  0.2810 ( 10)
           0.1047 ( 11)  0.1236 ( 12) -0.1128 ( 13) -0.2801 ( 14) -0.1559 ( 15)
          -0.2140 ( 19) -0.1202 ( 20)  0.2176 ( 21)  0.1425 ( 23) -0.1030 ( 26)
           0.1110 ( 27)  0.1561 ( 28) -0.1682 ( 29) -0.1318 ( 32)  0.1169 ( 33)
          -0.1870 ( 35) -0.1558 ( 36)  0.2015 ( 37)  0.1501 ( 39) -0.2396 ( 41)
           0.1709 ( 43)  0.1193 ( 54)  0.1104 ( 55) -0.1238 ( 60) -0.1261 ( 62)
          -0.1174 ( 64) -0.1197 ( 68)
 CRD 27=   0.7288 (  2) -0.2106 (  7) -0.1569 ( 11) -0.1608 ( 13) -0.1616 ( 17)
           0.1412 ( 32)  0.1447 ( 33)  0.1048 ( 39)  0.1167 ( 54) -0.1140 ( 55)
           0.1595 ( 59) -0.1252 ( 62)  0.1219 ( 64) -0.1589 ( 67)
 CRD 28=   0.1669 (  2) -0.1050 (  3)  0.2148 (  8)  0.2262 (  9) -0.1251 ( 11)
          -0.1998 ( 12) -0.1111 ( 13) -0.1805 ( 15) -0.1491 ( 16)  0.1684 ( 17)
          -0.1462 ( 18)  0.1740 ( 20) -0.1625 ( 22)  0.1661 ( 23) -0.1263 ( 24)
          -0.2833 ( 25)  0.1333 ( 26)  0.1033 ( 27) -0.2450 ( 31) -0.1276 ( 32)
          -0.1371 ( 33)  0.1881 ( 34)  0.1214 ( 35)  0.1742 ( 38)  0.2326 ( 44)
           0.1887 ( 45) -0.1668 ( 47)  0.1778 ( 48) -0.2158 ( 49) -0.1733 ( 50)
 CRD 29=  -0.3632 (  2)  0.2585 (  3)  0.3354 (  4)  0.2257 (  5)  0.2232 (  6)
          -0.1860 (  7) -0.1311 (  8) -0.1314 (  9) -0.1122 ( 10) -0.1707 ( 11)
          -0.1090 ( 12) -0.1718 ( 13) -0.1138 ( 14) -0.1104 ( 15) -0.1497 ( 16)
          -0.1718 ( 17) -0.1320 ( 18) -0.1330 ( 19) -0.1503 ( 20) -0.1316 ( 21)
          -0.1307 ( 22) -0.1502 ( 23) -0.1513 ( 24)  0.1338 ( 31)  0.1731 ( 32)
           0.1733 ( 33)  0.1528 ( 34)  0.1109 ( 35)  0.1557 ( 36)  0.1126 ( 37)
           0.1541 ( 38)  0.1572 ( 39)
 CRD 30=  -0.4902 (  5)  0.4548 (  6)  0.1012 (  8) -0.1209 (  9) -0.1606 ( 11)
          -0.1762 ( 12)  0.1730 ( 13)  0.1016 ( 14)  0.1748 ( 15) -0.1561 ( 16)
           0.1774 ( 18)  0.1527 ( 19) -0.1385 ( 21) -0.1678 ( 22)  0.1682 ( 24)
           0.1991 ( 34)  0.1433 ( 35)  0.1275 ( 36) -0.1546 ( 37) -0.2031 ( 38)
          -0.1489 ( 39) -0.1026 ( 41)  0.1039 ( 43)
 CRD 31=  -0.3070 (  2) -0.1852 (  3)  0.5004 (  4) -0.2210 (  5) -0.2240 (  6)
          -0.1328 (  7)  0.1392 (  8)  0.1399 (  9)  0.1536 ( 10) -0.1189 ( 11)
           0.1455 ( 12) -0.1200 ( 13)  0.1532 ( 14)  0.1444 ( 15) -0.2034 ( 31)
          -0.2150 ( 35) -0.2141 ( 37)  0.1332 ( 54) -0.1336 ( 55)  0.1281 ( 59)
          -0.1325 ( 62)  0.1330 ( 64) -0.1282 ( 67)
 CRD 32=   0.4802 (  3) -0.2064 (  5) -0.2597 (  6) -0.1722 (  7)  0.1953 ( 10)
           0.1035 ( 11) -0.1225 ( 12)  0.1996 ( 14) -0.1429 ( 15) -0.1327 ( 20)
          -0.1340 ( 23) -0.1819 ( 25)  0.1034 ( 26)  0.1549 ( 32)  0.1358 ( 33)
          -0.2064 ( 36) -0.1996 ( 39)  0.2434 ( 44) -0.1110 ( 47)  0.1122 ( 48)
          -0.2259 ( 49)
 CRD 33=  -0.1987 (  8)  0.1988 (  9)  0.2487 ( 10) -0.2482 ( 12) -0.2452 ( 14)
           0.2446 ( 15)  0.1020 ( 19) -0.1030 ( 21)  0.1519 ( 32) -0.1515 ( 33)
           0.1924 ( 34) -0.1858 ( 36) -0.1899 ( 38)  0.1829 ( 39) -0.1188 ( 43)
          -0.1652 ( 44)  0.1107 ( 45)  0.1097 ( 46)  0.1156 ( 47)  0.1155 ( 48)
          -0.1688 ( 49)  0.1112 ( 50)  0.1093 ( 51) -0.1651 ( 52)  0.1107 ( 53)
           0.1163 ( 54)  0.1155 ( 55)  0.1120 ( 56) -0.1680 ( 57) -0.1605 ( 58)
           0.1153 ( 59)  0.1046 ( 60)  0.1201 ( 61)  0.1042 ( 62) -0.1239 ( 63)
           0.1042 ( 64)  0.1206 ( 65) -0.1637 ( 66)  0.1162 ( 67)  0.1039 ( 68)
          -0.1243 ( 69)
 CRD 34=   0.2045 (  8) -0.2200 (  9)  0.2312 ( 11) -0.1993 ( 12) -0.2493 ( 13)
           0.1846 ( 15)  0.1054 ( 20) -0.1189 ( 28)  0.1282 ( 29) -0.1681 ( 32)
           0.1528 ( 33)  0.1632 ( 35) -0.1736 ( 36) -0.1760 ( 37)  0.1643 ( 39)
           0.1306 ( 43)  0.1948 ( 45) -0.1285 ( 46) -0.1070 ( 48)  0.1965 ( 50)
          -0.1066 ( 51)  0.1597 ( 53) -0.1165 ( 54) -0.1421 ( 55)  0.1635 ( 56)
           0.2274 ( 59) -0.1232 ( 60) -0.1013 ( 62)  0.1360 ( 63) -0.1281 ( 64)
           0.2263 ( 67) -0.1062 ( 68)  0.1311 ( 69)
 CRD 35=  -0.3215 (  7)  0.1499 (  8)  0.1310 (  9) -0.1991 ( 10)  0.1790 ( 11)
           0.1428 ( 13) -0.1927 ( 14)  0.1134 ( 17)  0.1098 ( 30) -0.2282 ( 31)
           0.1278 ( 32)  0.1421 ( 33) -0.1663 ( 34)  0.1270 ( 35)  0.1013 ( 37)
          -0.1582 ( 38)  0.1891 ( 46) -0.1945 ( 47)  0.1792 ( 48) -0.2024 ( 51)
          -0.2126 ( 54)  0.1941 ( 55)  0.1600 ( 60)  0.1681 ( 61) -0.2314 ( 62)
           0.2178 ( 64) -0.1801 ( 65) -0.1737 ( 68)
 CRD 36=  -0.1268 (  5)  0.1176 (  6) -0.2298 (  8)  0.2148 (  9) -0.1948 ( 10)
           0.1740 ( 11) -0.1875 ( 13)  0.1792 ( 14) -0.1233 ( 20)  0.1269 ( 23)
           0.1006 ( 24) -0.1059 ( 29)  0.1614 ( 32) -0.1710 ( 33) -0.1347 ( 34)
           0.1520 ( 35) -0.1639 ( 37)  0.1223 ( 38) -0.1632 ( 41) -0.1404 ( 43)
           0.1182 ( 46) -0.1752 ( 47) -0.1709 ( 48)  0.1364 ( 51)  0.1362 ( 52)
           0.1700 ( 53)  0.1610 ( 56)  0.1642 ( 57)  0.1141 ( 59) -0.1376 ( 61)
          -0.2804 ( 63) -0.1244 ( 65)  0.1123 ( 66)  0.1092 ( 67) -0.2764 ( 69)
 CRD 37=   0.2527 (  3) -0.1117 (  5) -0.1400 (  6)  0.1178 (  7) -0.1180 ( 10)
           0.2126 ( 12) -0.1404 ( 14)  0.2158 ( 15) -0.1361 ( 18)  0.1358 ( 19)
           0.1258 ( 21) -0.1264 ( 22) -0.1872 ( 25)  0.1047 ( 26)  0.1112 ( 30)
           0.1359 ( 31) -0.1036 ( 34)  0.1387 ( 36) -0.1166 ( 38)  0.1445 ( 39)
           0.1082 ( 40) -0.1166 ( 42)  0.2404 ( 45) -0.1042 ( 46) -0.1373 ( 47)
           0.1617 ( 48) -0.2360 ( 50) -0.2375 ( 52)  0.2161 ( 57) -0.2646 ( 58)
          -0.1173 ( 60)  0.2498 ( 66)  0.1202 ( 68)
 CRD 38=   0.2534 (  4)  0.1603 (  7)  0.1605 ( 11)  0.1605 ( 13) -0.1236 ( 16)
          -0.1232 ( 17) -0.1236 ( 24) -0.1062 ( 25) -0.1057 ( 26) -0.1057 ( 27)
           0.1081 ( 31)  0.1082 ( 35)  0.1082 ( 37) -0.1197 ( 45) -0.1194 ( 46)
          -0.1196 ( 47)  0.1195 ( 48)  0.1197 ( 50)  0.1195 ( 51) -0.1422 ( 52)
          -0.2619 ( 53)  0.2619 ( 56)  0.1423 ( 57)  0.1421 ( 58) -0.2613 ( 60)
           0.2617 ( 61) -0.1419 ( 63) -0.2617 ( 65) -0.1421 ( 66)  0.2613 ( 68)
           0.1419 ( 69)
 CRD 39=   0.5861 ( 40)  0.5124 ( 41)  0.5808 ( 42)

 THE DETERMINANT OF THE G MATRIX IS 10**(   -18)


                     --------------------
                     INTERNAL COORDINATES
                     --------------------

                 - - ATOMS - -         COORDINATE      COORDINATE
 NO.   TYPE    I  J  K  L  M  N        (BOHR,RAD)       (ANG,DEG)
 ----------------------------------------------------------------
   1 BEND      1  3  2                  2.9321531     168.0000000
   2 STRETCH   1  3                     3.9655853       2.0984975
   3 STRETCH   2  4                     3.3484320       1.7719140
   4 STRETCH   2  3                     3.2154201       1.7015272
   5 STRETCH   2  6                     3.3484566       1.7719271
   6 STRETCH   2  5                     3.3484461       1.7719215
   7 STRETCH   4  8                     2.0698887       1.0953380
   8 STRETCH   4  7                     2.0585963       1.0893623
   9 STRETCH   4  9                     2.0585769       1.0893521
  10 STRETCH   5 12                     2.0585887       1.0893583
  11 STRETCH   5 11                     2.0699049       1.0953466
  12 STRETCH   5 10                     2.0585850       1.0893563
  13 STRETCH   6 15                     2.0699113       1.0953500
  14 STRETCH   6 14                     2.0585734       1.0893502
  15 STRETCH   6 13                     2.0585905       1.0893593
  16 BEND      2  5 11                  1.8617257     106.6690242
  17 BEND      2  4  8                  1.8617503     106.6704366
  18 BEND      2  6 13                  1.9422064     111.2802298
  19 BEND      2  6 14                  1.9421731     111.2783195
  20 BEND      2  4  9                  1.9421657     111.2778965
  21 BEND      2  5 12                  1.9421929     111.2794586
  22 BEND      2  5 10                  1.9422210     111.2810643
  23 BEND      2  4  7                  1.9421835     111.2789152
  24 BEND      2  6 15                  1.8617547     106.6706876
  25 BEND      3  2  4                  1.8566295     106.3770343
  26 BEND      3  2  5                  1.8564257     106.3653596
  27 BEND      3  2  6                  1.8563668     106.3619840
  28 BEND      4  2  6                  1.9615455     112.3882757
  29 BEND      4  2  5                  1.9615420     112.3880789
  30 BEND      5  2  6                  1.9615340     112.3876199
  31 BEND      7  4  9                  1.9411093     111.2173696
  32 BEND      7  4  8                  1.8865465     108.0911531
  33 BEND      8  4  9                  1.8865760     108.0928403
  34 BEND     10  5 11                  1.8865249     108.0899157
  35 BEND     10  5 12                  1.9411462     111.2194854
  36 BEND     11  5 12                  1.8865127     108.0892176
  37 BEND     13  6 14                  1.9411688     111.2207796
  38 BEND     13  6 15                  1.8864953     108.0882171
  39 BEND     14  6 15                  1.8865259     108.0899695
  40 TORSION   1  3  2  5               0.9826059      56.2991703
  41 TORSION   1  3  2  4               3.0770573     176.3023961
  42 TORSION   1  3  2  6              -1.1117026     -63.6958676
  43 TORSION   3  2  4  8               3.1415018     179.9947971
  44 TORSION   3  2  6 15               3.1414176     179.9899701
  45 TORSION   3  2  6 14              -1.0879358     -62.3341312
  46 TORSION   3  2  4  7              -1.0878237     -62.3277076
  47 TORSION   3  2  5 10              -1.0876530     -62.3179262
  48 TORSION   3  2  6 13               1.0876044      62.3151424
  49 TORSION   3  2  5 11              -3.1414924    -179.9942563
  50 TORSION   3  2  5 12               1.0878833      62.3311241
  51 TORSION   3  2  4  9               1.0876163      62.3158257
  52 TORSION   4  2  6 15              -1.1167595     -63.9856053
  53 TORSION   4  2  6 14               0.9370724      53.6902935
  54 TORSION   4  2  5 10              -3.1126949    -178.3442782
  55 TORSION   4  2  6 13               3.1126126     178.3395670
  56 TORSION   4  2  5 12              -0.9371585     -53.6952280
  57 TORSION   4  2  5 11               1.1166510      63.9793917
  58 TORSION   5  2  6 15               1.1166606      63.9799412
  59 TORSION   5  2  6 14              -3.1126928    -178.3441601
  60 TORSION   5  2  4  7               0.9370955      53.6916197
  61 TORSION   5  2  6 13              -0.9371526     -53.6948865
  62 TORSION   5  2  4  9               3.1125356     178.3351530
  63 TORSION   5  2  4  8              -1.1167642     -63.9858756
  64 TORSION   6  2  4  7              -3.1126739    -178.3430761
  65 TORSION   6  2  5 10               0.9370685      53.6900713
  66 TORSION   6  2  5 11              -1.1167709     -63.9862587
  67 TORSION   6  2  5 12               3.1126049     178.3391216
  68 TORSION   6  2  4  9              -0.9372338     -53.6995428
  69 TORSION   6  2  4  8               1.1166517      63.9794286

     ------------------------------------------
     THE POINT GROUP IS C1 , NAXIS= 0, ORDER= 1
     ------------------------------------------

 -- VARIATIONAL SPACE WILL BE RESTRICTED TO PURE SPHERICAL HARMONICS ONLY --
 AFTER EXCLUDING CONTAMINANT COMBINATIONS FROM THE CARTESIAN GAUSSIAN BASIS
 SET, THE NUMBER OF SPHERICAL HARMONICS KEPT IN THE VARIATION SPACE IS  316

     DIMENSIONS OF THE SYMMETRY SUBSPACES ARE
 A   =  316

 ..... DONE SETTING UP THE RUN .....
 CPU     0: STEP CPU TIME=     0.09 TOTAL CPU TIME=        0.1 (    0.0 MIN)
 TOTAL WALL CLOCK TIME=        0.2 SECONDS, CPU UTILIZATION IS  56.25%


          -----------------------------
          STATIONARY POINT LOCATION RUN
          -----------------------------


           ** GEOMETRY CONSTRAINTS ARE BEING APPLIED. **

          TRANSFORMING DISPLACEMENT FROM INTERNALS TO CARTESIANS
          THE ROOT MEAN SQUARE ERROR IN ITERATION   1 IS   0.00000000
 WARNING! THE RADIUS IN CARTESIANS IS    0.00000
 OBTAINING INITIAL HESSIAN, HESS=GUESS   
 DIAGONAL GUESS HESSIAN IN INTERNAL COORDS IS
     1  0.3179     2  0.5872     3  0.4357     4  0.4035     5  0.4357
     6  0.4357     7  0.3428     8  0.3468     9  0.3468    10  0.3468
    11  0.3428    12  0.3468    13  0.3428    14  0.3468    15  0.3468
    16  0.2410    17  0.2410    18  0.2414    19  0.2414    20  0.2414
    21  0.2414    22  0.2414    23  0.2414    24  0.2410    25  0.2834
    26  0.2834    27  0.2834    28  0.2919    29  0.2919    30  0.2919
    31  0.2035    32  0.2032    33  0.2032    34  0.2032    35  0.2035
    36  0.2032    37  0.2035    38  0.2032    39  0.2032    40  0.2500
    41  0.2500    42  0.2500    43  0.2500    44  0.2500    45  0.2500
    46  0.2500    47  0.2500    48  0.2500    49  0.2500    50  0.2500
    51  0.2500    52  0.2500    53  0.2500    54  0.2500    55  0.2500
    56  0.2500    57  0.2500    58  0.2500    59  0.2500    60  0.2500
    61  0.2500    62  0.2500    63  0.2500    64  0.2500    65  0.2500
    66  0.2500    67  0.2500    68  0.2500    69  0.2500
 TRANSFORMING HESSIAN TO SYMMETRY COORDINATES

          PARAMETERS CONTROLLING GEOMETRY SEARCH ARE
          METHOD =QA                  UPHESS =BFGS    
          NNEG   =         0          NFRZ   =         0
          NSTEP  =        50          IFOLOW =         1
          HESS   =GUESS               RESTAR =         F
          IHREP  =         0          HSSEND =         F
          NPRT   =         0          NPUN   =         0
          OPTTOL = 1.000E-04          RMIN   = 1.500E-03
          RMAX   = 1.000E-01          RLIM   = 7.000E-02
          DXMAX  = 3.000E-01          PURIFY =         F
          MOVIE  =         F          TRUPD  =         T
          TRMAX  = 5.000E-01          TRMIN  = 5.000E-02
          ITBMAT =         5          STPT   =         F
          STSTEP = 1.000E-02          PROJCT=          T

 BEGINNING GEOMETRY SEARCH POINT NSERCH=   0 ...

 COORDINATES OF ALL ATOMS ARE (ANGS)
   ATOM   CHARGE       X              Y              Z
 ------------------------------------------------------------
 LA         57.0   0.3143500000   0.8802800000  -4.0288700000
 P          15.0  -0.1201429077   0.3370279144  -0.3140044646
 O           8.0  -0.1001300000   0.6702700000  -1.9824600000
 C           6.0  -1.5948118984   1.0818073759   0.3265689316
 C           6.0   1.3496325546   1.0636604087   0.3579115162
 C           6.0  -0.1326757140  -1.4279400415  -0.1576186717
 H           1.0  -1.5808202939   2.1631198578   0.1951238896
 H           1.0  -1.6125888739   0.8699890580   1.4010838422
 H           1.0  -2.4858606676   0.6419025175  -0.1197535429
 H           1.0   2.2445274023   0.6126708958  -0.0692522302
 H           1.0   1.3418405220   0.8518664530   1.4325588028
 H           1.0   1.3518100662   2.1450355997   0.2262890604
 H           1.0   0.7681332728  -1.8689292774  -0.5827954317
 H           1.0  -1.0296370756  -1.8578155893  -0.6018610071
 H           1.0  -0.1453981919  -1.6482482497   0.9152717947


                     --------------------
                     INTERNAL COORDINATES
                     --------------------

                 - - ATOMS - -         COORDINATE      COORDINATE
 NO.   TYPE    I  J  K  L  M  N        (BOHR,RAD)       (ANG,DEG)
 ----------------------------------------------------------------
   1 BEND      1  3  2                  2.9321531     168.0000000
   2 STRETCH   1  3                     3.9655853       2.0984975
   3 STRETCH   2  4                     3.3484320       1.7719140
   4 STRETCH   2  3                     3.2154201       1.7015272
   5 STRETCH   2  6                     3.3484566       1.7719271
   6 STRETCH   2  5                     3.3484461       1.7719215
   7 STRETCH   4  8                     2.0698887       1.0953380
   8 STRETCH   4  7                     2.0585963       1.0893623
   9 STRETCH   4  9                     2.0585769       1.0893521
  10 STRETCH   5 12                     2.0585887       1.0893583
  11 STRETCH   5 11                     2.0699049       1.0953466
  12 STRETCH   5 10                     2.0585850       1.0893563
  13 STRETCH   6 15                     2.0699113       1.0953500
  14 STRETCH   6 14                     2.0585734       1.0893502
  15 STRETCH   6 13                     2.0585905       1.0893593
  16 BEND      2  5 11                  1.8617257     106.6690242
  17 BEND      2  4  8                  1.8617503     106.6704366
  18 BEND      2  6 13                  1.9422064     111.2802298
  19 BEND      2  6 14                  1.9421731     111.2783195
  20 BEND      2  4  9                  1.9421657     111.2778965
  21 BEND      2  5 12                  1.9421929     111.2794586
  22 BEND      2  5 10                  1.9422210     111.2810643
  23 BEND      2  4  7                  1.9421835     111.2789152
  24 BEND      2  6 15                  1.8617547     106.6706876
  25 BEND      3  2  4                  1.8566295     106.3770343
  26 BEND      3  2  5                  1.8564257     106.3653596
  27 BEND      3  2  6                  1.8563668     106.3619840
  28 BEND      4  2  6                  1.9615455     112.3882757
  29 BEND      4  2  5                  1.9615420     112.3880789
  30 BEND      5  2  6                  1.9615340     112.3876199
  31 BEND      7  4  9                  1.9411093     111.2173696
  32 BEND      7  4  8                  1.8865465     108.0911531
  33 BEND      8  4  9                  1.8865760     108.0928403
  34 BEND     10  5 11                  1.8865249     108.0899157
  35 BEND     10  5 12                  1.9411462     111.2194854
  36 BEND     11  5 12                  1.8865127     108.0892176
  37 BEND     13  6 14                  1.9411688     111.2207796
  38 BEND     13  6 15                  1.8864953     108.0882171
  39 BEND     14  6 15                  1.8865259     108.0899695
  40 TORSION   1  3  2  5               0.9826059      56.2991703
  41 TORSION   1  3  2  4               3.0770573     176.3023961
  42 TORSION   1  3  2  6              -1.1117026     -63.6958676
  43 TORSION   3  2  4  8               3.1415018     179.9947971
  44 TORSION   3  2  6 15               3.1414176     179.9899701
  45 TORSION   3  2  6 14              -1.0879358     -62.3341312
  46 TORSION   3  2  4  7              -1.0878237     -62.3277076
  47 TORSION   3  2  5 10              -1.0876530     -62.3179262
  48 TORSION   3  2  6 13               1.0876044      62.3151424
  49 TORSION   3  2  5 11              -3.1414924    -179.9942563
  50 TORSION   3  2  5 12               1.0878833      62.3311241
  51 TORSION   3  2  4  9               1.0876163      62.3158257
  52 TORSION   4  2  6 15              -1.1167595     -63.9856053
  53 TORSION   4  2  6 14               0.9370724      53.6902935
  54 TORSION   4  2  5 10              -3.1126949    -178.3442782
  55 TORSION   4  2  6 13               3.1126126     178.3395670
  56 TORSION   4  2  5 12              -0.9371585     -53.6952280
  57 TORSION   4  2  5 11               1.1166510      63.9793917
  58 TORSION   5  2  6 15               1.1166606      63.9799412
  59 TORSION   5  2  6 14              -3.1126928    -178.3441601
  60 TORSION   5  2  4  7               0.9370955      53.6916197
  61 TORSION   5  2  6 13              -0.9371526     -53.6948865
  62 TORSION   5  2  4  9               3.1125356     178.3351530
  63 TORSION   5  2  4  8              -1.1167642     -63.9858756
  64 TORSION   6  2  4  7              -3.1126739    -178.3430761
  65 TORSION   6  2  5 10               0.9370685      53.6900713
  66 TORSION   6  2  5 11              -1.1167709     -63.9862587
  67 TORSION   6  2  5 12               3.1126049     178.3391216
  68 TORSION   6  2  4  9              -0.9372338     -53.6995428
  69 TORSION   6  2  4  8               1.1166517      63.9794286

          ********************
          1 ELECTRON INTEGRALS
          ********************
 TIME TO DO ORDINARY INTEGRALS=      0.02
 TIME TO DO      ECP INTEGRALS=      0.06
 ...... END OF ONE-ELECTRON INTEGRALS ......
 CPU     0: STEP CPU TIME=     0.09 TOTAL CPU TIME=        0.2 (    0.0 MIN)
 TOTAL WALL CLOCK TIME=        0.3 SECONDS, CPU UTILIZATION IS  60.00%

          -------------
          GUESS OPTIONS
          -------------
          GUESS =HUCKEL            NORB  =       0          NORDER=       0
          MIX   =       F          PRTMO =       F          PUNMO =       F
          TOLZ  = 1.0E-08          TOLE  = 1.0E-05
          SYMDEN=       F          PURIFY=       F

 INITIAL GUESS ORBITALS GENERATED BY HUCKEL   ROUTINE.
 HUCKEL GUESS REQUIRES    916545 WORDS.

 STATISTICS FOR GENERATION OF SYMMETRY ORBITAL -Q- MATRIX
 NUMBER OF CARTESIAN ATOMIC ORBITALS=        354
 NUMBER OF SPHERICAL CONTAMINANTS DROPPED=    38
 NUMBER OF LINEARLY DEPENDENT MOS DROPPED=     0
 TOTAL NUMBER OF MOS IN VARIATION SPACE=     316

 SYMMETRIES FOR INITIAL GUESS ORBITALS FOLLOW.   BOTH SET(S).
    29 ORBITALS ARE OCCUPIED (   13 CORE ORBITALS).
    14=A       15=A       16=A       17=A       18=A       19=A       20=A   
    21=A       22=A       23=A       24=A       25=A       26=A       27=A   
    28=A       29=A       30=A       31=A       32=A       33=A       34=A   
    35=A       36=A       37=A       38=A       39=A   
 ...... END OF INITIAL ORBITAL SELECTION ......
 CPU     0: STEP CPU TIME=     0.20 TOTAL CPU TIME=        0.4 (    0.0 MIN)
 TOTAL WALL CLOCK TIME=        0.8 SECONDS, CPU UTILIZATION IS  49.35%

                    ----------------------
                    AO INTEGRAL TECHNOLOGY
                    ----------------------
     S,P,L SHELL ROTATED AXIS INTEGRALS, REPROGRAMMED BY
        KAZUYA ISHIMURA (IMS) AND JOSE SIERRA (SYNSTAR).
     S,P,D,L SHELL ROTATED AXIS INTEGRALS PROGRAMMED BY
        KAZUYA ISHIMURA (INSTITUTE FOR MOLECULAR SCIENCE).
     S,P,D,F,G SHELL TO TOTAL QUARTET ANGULAR MOMENTUM SUM 5,
        ERIC PROGRAM BY GRAHAM FLETCHER (ELORET AND NASA ADVANCED
        SUPERCOMPUTING DIVISION, AMES RESEARCH CENTER).
     S,P,D,F,G,L SHELL GENERAL RYS QUADRATURE PROGRAMMED BY
        MICHEL DUPUIS (PACIFIC NORTHWEST NATIONAL LABORATORY).

          --------------------
          2 ELECTRON INTEGRALS
          --------------------

 DIRECT SCF METHOD SKIPS INTEGRAL STORAGE ON DISK.
 DIRECT TRANSFORMATION SKIPS AO INTEGRAL STORAGE ON DISK.
  ...... END OF TWO-ELECTRON INTEGRALS .....
 CPU     0: STEP CPU TIME=     0.02 TOTAL CPU TIME=        0.4 (    0.0 MIN)
 TOTAL WALL CLOCK TIME=        0.8 SECONDS, CPU UTILIZATION IS  51.28%

          --------------------------
                 RHF SCF CALCULATION
          --------------------------

     NUCLEAR ENERGY =       335.2295335260
     MAXIT =  200     NPUNCH=    2
     EXTRAP=T  DAMP=F  SHIFT=F  RSTRCT=F  DIIS=F  DEM=F  SOSCF=T
     DENSITY MATRIX CONV=  2.00E-06
     SOSCF WILL OPTIMIZE    8323 ORBITAL ROTATIONS, SOGTOL=   0.250
     MEMORY REQUIRED FOR RHF ITERS=    982670 WORDS.

 DIRECT SCF CALCULATION, SCHWRZ=T   FDIFF=F,  DIRTHR=  0.00E+00 NITDIR=10
 SCHWARZ INEQUALITY OVERHEAD:     62184 INTEGRALS, T=        0.01

                                                                                   NONZERO     BLOCKS
 ITER EX DEM     TOTAL ENERGY        E CHANGE  DENSITY CHANGE     ORB. GRAD      INTEGRALS    SKIPPED
   1  0  0     -563.3626851453  -563.3626851453   0.369861929   0.000000000     1463048672    4149859
          ---------------START SECOND ORDER SCF---------------
   2  1  0     -564.4973641070    -1.1346789617   0.167781223   0.094477984     1450330536    4454960
   3  2  0     -564.6229588566    -0.1255947496   0.065222570   0.062730713     1449285602    4473967
   4  3  0     -564.7206360328    -0.0976771762   0.020522925   0.011126235     1449575785    4461177
   5  4  0     -564.7231638377    -0.0025278049   0.006552881   0.005739129     1450129396    4452274
   6  5  0     -564.7237879682    -0.0006241305   0.002748917   0.001106831     1450186214    4451042
   7  6  0     -564.7238416808    -0.0000537127   0.000939186   0.000259173     1450205404    4450471
   8  7  0     -564.7238472011    -0.0000055203   0.000370935   0.000114812     1450217808    4450474
   9  8  0     -564.7238479027    -0.0000007016   0.000150203   0.000054052     1450228312    4450474
  10  9  0     -564.7238480202    -0.0000001175   0.000058865   0.000023631     1450228062    4450534
  11 10  0     -564.7238480447    -0.0000000245   0.000031320   0.000007686     1450227523    4450543
  12 11  0     -564.7238480484    -0.0000000037   0.000011067   0.000002981     1450227463    4450531
  13 12  0     -564.7238480489    -0.0000000005   0.000003793   0.000001212     1450227760    4450524
  14 13  0     -564.7238480490    -0.0000000001   0.000001707   0.000000494     1450227752    4450523

          -----------------
          DENSITY CONVERGED
          -----------------
     TIME TO FORM FOCK OPERATORS=      91.9 SECONDS (       6.6 SEC/ITER)
     FOCK TIME ON FIRST ITERATION=       6.6, LAST ITERATION=       6.6
     TIME TO SOLVE SCF EQUATIONS=       0.4 SECONDS (       0.0 SEC/ITER)

 FINAL RHF ENERGY IS     -564.7238480490 AFTER  14 ITERATIONS

          ------------
          EIGENVECTORS
          ------------

                      1          2          3          4          5
                  -80.4722   -21.0455   -11.6367   -11.6361   -11.6287
                     A          A          A          A          A   
    1  LA 1  S    0.000004  -0.000019   0.000002   0.000003   0.000005
    2  LA 1  X   -0.000002   0.000008  -0.000010   0.000001   0.000007
    3  LA 1  Y    0.000000  -0.000003  -0.000006   0.000012  -0.000007
    4  LA 1  Z    0.000004  -0.000005  -0.000003   0.000001   0.000013
    5  LA 1 XX    0.000003  -0.000004  -0.000000  -0.000011   0.000004
    6  LA 1 YY    0.000004  -0.000010  -0.000011   0.000010  -0.000001
    7  LA 1 ZZ   -0.000007   0.000014   0.000011   0.000001  -0.000003
    8  LA 1 XY   -0.000000   0.000002   0.000006   0.000002  -0.000006
    9  LA 1 XZ    0.000003  -0.000020   0.000013  -0.000005   0.000001
   10  LA 1 YZ    0.000001   0.000005   0.000008  -0.000014  -0.000001
   11  LA 1 XX   -0.000000   0.000066   0.000010   0.000037   0.000022
   12  LA 1 YY    0.000001   0.000070   0.000037  -0.000004   0.000030
   13  LA 1 ZZ   -0.000001  -0.000135  -0.000047  -0.000033  -0.000051
   14  LA 1 XY   -0.000000  -0.000011  -0.000015  -0.000003   0.000010
   15  LA 1 XZ    0.000003   0.000056  -0.000009   0.000022   0.000008
   16  LA 1 YZ   -0.000001   0.000019  -0.000009   0.000025   0.000019
   17  LA 1  S   -0.000010  -0.000129  -0.000112  -0.000114  -0.000132
   18  LA 1  X    0.000001   0.000032  -0.000010   0.000014   0.000020
   19  LA 1  Y   -0.000001   0.000004  -0.000014   0.000025  -0.000003
   20  LA 1  Z    0.000002  -0.000098  -0.000036  -0.000028  -0.000036
   21  LA 1  S    0.000004   0.000052   0.000197   0.000200   0.000195
   22  LA 1  X   -0.000000  -0.000022   0.000030  -0.000020  -0.000049
   23  LA 1  Y    0.000000   0.000002   0.000005  -0.000079  -0.000005
   24  LA 1  Z   -0.000001   0.000043   0.000172   0.000156   0.000156
   25  LA 1  S   -0.000018  -0.000032  -0.000009  -0.000011  -0.000030
   26  LA 1  X    0.000007   0.000004   0.000021   0.000001  -0.000007
   27  LA 1  Y    0.000001   0.000021   0.000013  -0.000021   0.000017
   28  LA 1  Z   -0.000024  -0.000110  -0.000007  -0.000017  -0.000057
   29  LA 1 XX   -0.000000  -0.000012  -0.000041  -0.000062  -0.000038
   30  LA 1 YY   -0.000001  -0.000017  -0.000062  -0.000015  -0.000053
   31  LA 1 ZZ    0.000001   0.000028   0.000103   0.000076   0.000090
   32  LA 1 XY    0.000000   0.000002   0.000007   0.000004  -0.000008
   33  LA 1 XZ   -0.000001  -0.000022   0.000032  -0.000018  -0.000035
   34  LA 1 YZ    0.000000   0.000001  -0.000000  -0.000069  -0.000017
   35  P  2  S    1.000138   0.000084   0.000079   0.000081   0.000086
   36  P  2  S    0.000177   0.000525   0.000563   0.000576   0.000607
   37  P  2  S    0.000192   0.000699   0.000876   0.000896   0.000936
   38  P  2  S   -0.000946  -0.000245  -0.000275  -0.000282  -0.000305
   39  P  2  S   -0.000352  -0.002511   0.000069   0.000084   0.000205
   40  P  2  X    0.000005   0.000002   0.000414  -0.000001  -0.000440
   41  P  2  Y    0.000015   0.000030   0.000211  -0.000498   0.000225
   42  P  2  Z   -0.000084  -0.000152   0.000188   0.000044   0.000177
   43  P  2  X    0.000005   0.000005   0.001089  -0.000002  -0.001147
   44  P  2  Y    0.000014   0.000085   0.000556  -0.001305   0.000588
   45  P  2  Z   -0.000079  -0.000423   0.000478   0.000099   0.000453
   46  P  2  X   -0.000003  -0.000002  -0.000045   0.000001   0.000056
   47  P  2  Y   -0.000007  -0.000028  -0.000021   0.000059  -0.000027
   48  P  2  Z    0.000043   0.000138  -0.000034  -0.000018  -0.000031
   49  P  2  X   -0.000006  -0.000136  -0.000052  -0.000034   0.000015
   50  P  2  Y    0.000020  -0.000188  -0.000048  -0.000017  -0.000063
   51  P  2  Z   -0.000082   0.001254   0.000266   0.000278   0.000245
   52  P  2 XX   -0.000004  -0.000092   0.000128  -0.000156   0.000133
   53  P  2 YY   -0.000003  -0.000080  -0.000083   0.000249  -0.000081
   54  P  2 ZZ    0.000007   0.000172  -0.000045  -0.000092  -0.000052
   55  P  2 XY    0.000001   0.000004   0.000166   0.000006  -0.000174
   56  P  2 XZ   -0.000000  -0.000006   0.000133   0.000002  -0.000135
   57  P  2 YZ   -0.000002  -0.000059   0.000052  -0.000037   0.000055
   58  P  2 XX   -0.000027  -0.000096   0.000314  -0.000107   0.000320
   59  P  2 YY   -0.000024  -0.000106  -0.000062   0.000542  -0.000060
   60  P  2 ZZ    0.000051   0.000202  -0.000252  -0.000435  -0.000260
   61  P  2 XY   -0.000001  -0.000028   0.000200  -0.000002  -0.000243
   62  P  2 XZ    0.000002  -0.000005   0.000370  -0.000004  -0.000361
   63  P  2 YZ   -0.000020  -0.000077   0.000258  -0.000162   0.000243
   64  P  2 XXX  -0.000000  -0.000008   0.000030  -0.000002  -0.000029
   65  P  2 YYY  -0.000005   0.000025  -0.000034  -0.000082  -0.000042
   66  P  2 ZZZ  -0.000014  -0.000243  -0.000065  -0.000026  -0.000070
   67  P  2 XXY  -0.000000  -0.000173   0.000046   0.000029   0.000054
   68  P  2 XXZ   0.000010   0.000154   0.000055   0.000036   0.000061
   69  P  2 YYX  -0.000000   0.000001   0.000005   0.000002  -0.000007
   70  P  2 YYZ   0.000008   0.000172   0.000032  -0.000001   0.000033
   71  P  2 ZZX   0.000000   0.000010  -0.000045   0.000001   0.000046
   72  P  2 ZZY   0.000008   0.000140  -0.000001   0.000081   0.000002
   73  P  2 XYZ   0.000000  -0.000007   0.000022  -0.000001  -0.000027
   74  P  2 XX    0.000001   0.000027  -0.000001   0.000005  -0.000001
   75  P  2 YY    0.000001   0.000024   0.000003  -0.000003   0.000003
   76  P  2 ZZ   -0.000002  -0.000051  -0.000002  -0.000002  -0.000002
   77  P  2 XY   -0.000000  -0.000001  -0.000004  -0.000000   0.000004
   78  P  2 XZ    0.000000   0.000002  -0.000002  -0.000000   0.000003
   79  P  2 YZ    0.000001   0.000018   0.000001   0.000001   0.000000
   80  O  3  S   -0.000001   0.975627   0.000026   0.000027   0.000028
   81  O  3  S   -0.000002  -0.001136   0.000039   0.000039   0.000042
[...]
            143  C  4 XXY     0.00132     0.07706
            144  C  4 XXZ     0.00083     0.07755
            145  C  4 YYX     0.00081     0.06962
            146  C  4 YYZ     0.00139     0.06677
            147  C  4 ZZX     0.00000     0.06901
            148  C  4 ZZY     0.00000     0.06625
            149  C  4 XYZ     0.00000     0.00292
            150  C  5  S      1.95557     1.55558
            151  C  5  S      0.82777     0.43067
            152  C  5  S      0.16161     0.27780
            153  C  5  S      0.33172     0.14799
            154  C  5  X      0.27307     0.21129
            155  C  5  Y      0.29440     0.22623
            156  C  5  Z      0.29252     0.22527
            157  C  5  X      0.51574     0.26584
            158  C  5  Y      0.53837     0.27935
            159  C  5  Z      0.53780     0.28032
            160  C  5  X      0.13600     0.18423
            161  C  5  Y      0.18953     0.20257
            162  C  5  Z      0.23732     0.21015
            163  C  5 XX      0.00522     0.08551
            164  C  5 YY      0.00517     0.08674
            165  C  5 ZZ      0.00436     0.08543
            166  C  5 XY      0.00416     0.00477
            167  C  5 XZ      0.00331     0.00461
            168  C  5 YZ      0.00000     0.00373
            169  C  5 XX      0.00839     0.09166
            170  C  5 YY      0.01269     0.09004
            171  C  5 ZZ      0.01177     0.08481
            172  C  5 XY      0.01047     0.02724
            173  C  5 XZ      0.00819     0.02500
            174  C  5 YZ      0.00000     0.01555
            175  C  5 XXX     0.00091     0.15987
            176  C  5 YYY     0.00071     0.17123
            177  C  5 ZZZ     0.00082     0.16952
            178  C  5 XXY     0.00130     0.07701
            179  C  5 XXZ     0.00081     0.07665
            180  C  5 YYX     0.00081     0.06986
            181  C  5 YYZ     0.00141     0.06638
            182  C  5 ZZX     0.00000     0.06861
            183  C  5 ZZY     0.00000     0.06622
            184  C  5 XYZ     0.00000     0.00293
            185  C  6  S      1.95557     1.55597
            186  C  6  S      0.82781     0.43277
            187  C  6  S      0.16163     0.27890
            188  C  6  S      0.33090     0.14885
            189  C  6  X      0.30072     0.22841
            190  C  6  Y      0.26056     0.20710
            191  C  6  Z      0.29872     0.22917
            192  C  6  X      0.54383     0.27942
            193  C  6  Y      0.50134     0.26624
            194  C  6  Z      0.54667     0.28068
            195  C  6  X      0.19880     0.20589
            196  C  6  Y      0.10837     0.17166
            197  C  6  Z      0.25418     0.21322
            198  C  6 XX      0.00572     0.08701
            199  C  6 YY      0.00596     0.09037
            200  C  6 ZZ      0.00368     0.08663
            201  C  6 XY      0.00418     0.00332
            202  C  6 XZ      0.00270     0.00443
            203  C  6 YZ      0.00000     0.00262
            204  C  6 XX      0.01060     0.08865
            205  C  6 YY      0.01471     0.10325
            206  C  6 ZZ      0.01048     0.08679
            207  C  6 XY      0.00842     0.02338
            208  C  6 XZ      0.00733     0.01904
            209  C  6 YZ      0.00000     0.01310
            210  C  6 XXX     0.00090     0.16289
            211  C  6 YYY     0.00093     0.16862
            212  C  6 ZZZ     0.00060     0.16769
            213  C  6 XXY     0.00143     0.07175
            214  C  6 XXZ     0.00093     0.07458
            215  C  6 YYX     0.00049     0.07969
            216  C  6 YYZ     0.00149     0.07277
            217  C  6 ZZX     0.00000     0.07285
            218  C  6 ZZY     0.00000     0.06354
            219  C  6 XYZ     0.00000     0.00262
            220  H  7  S      0.25243     0.19442
            221  H  7  S      0.45189     0.24413
            222  H  7  S      0.05971     0.11855
            223  H  7  X      0.00158     0.00203
            224  H  7  Y      0.00745     0.01095
            225  H  7  Z      0.00174     0.00226
            226  H  7  X      0.01047     0.02854
            227  H  7  Y      0.00534     0.04779
            228  H  7  Z      0.00848     0.02957
            229  H  7 XX      0.00033     0.06899
            230  H  7 YY      0.00064     0.11612
            231  H  7 ZZ      0.00101     0.06996
            232  H  7 XY      0.00009     0.00483
            233  H  7 XZ      0.00082     0.00014
            234  H  7 YZ      0.00000     0.00521
            235  H  8  S      0.24759     0.19083
            236  H  8  S      0.44919     0.24007
            237  H  8  S      0.04727     0.11460
            238  H  8  X      0.00162     0.00215
            239  H  8  Y      0.00178     0.00242
            240  H  8  Z      0.00737     0.01070
            241  H  8  X      0.00992     0.02885
            242  H  8  Y      0.00793     0.02874
            243  H  8  Z      0.00604     0.04772
            244  H  8 XX      0.00089     0.06823
            245  H  8 YY      0.00012     0.06977
            246  H  8 ZZ      0.00009     0.11301
            247  H  8 XY      0.00096     0.00019
            248  H  8 XZ      0.00080     0.00491
            249  H  8 YZ      0.00000     0.00526
            250  H  9  S      0.25238     0.18647
            251  H  9  S      0.45167     0.24196
            252  H  9  S      0.05932     0.11883
            253  H  9  X      0.00571     0.00753
            254  H  9  Y      0.00247     0.00348
            255  H  9  Z      0.00260     0.00365
            256  H  9  X      0.01037     0.04370
            257  H  9  Y      0.00697     0.03111
            258  H  9  Z      0.00692     0.03242
            259  H  9 XX      0.00050     0.09808
            260  H  9 YY      0.00088     0.07474
            261  H  9 ZZ      0.00061     0.07572
            262  H  9 XY      0.00062     0.00508
            263  H  9 XZ      0.00027     0.00528
            264  H  9 YZ      0.00000     0.00185
            265  H 10  S      0.25353     0.18775
            266  H 10  S      0.45408     0.24330
            267  H 10  S      0.06599     0.12023
            268  H 10  X      0.00579     0.00765
            269  H 10  Y      0.00252     0.00359
            270  H 10  Z      0.00241     0.00334
            271  H 10  X      0.00992     0.04416
            272  H 10  Y      0.00689     0.03153
            273  H 10  Z      0.00732     0.03246
            274  H 10 XX      0.00045     0.09950
            275  H 10 YY      0.00091     0.07579
            276  H 10 ZZ      0.00063     0.07449
            277  H 10 XY      0.00064     0.00529
            278  H 10 XZ      0.00025     0.00520
            279  H 10 YZ      0.00000     0.00167
            280  H 11  S      0.24721     0.19053
            281  H 11  S      0.44631     0.23938
            282  H 11  S      0.04430     0.11358
            283  H 11  X      0.00159     0.00209
            284  H 11  Y      0.00179     0.00245
            285  H 11  Z      0.00739     0.01074
            286  H 11  X      0.00964     0.02861
            287  H 11  Y      0.00782     0.02870
            288  H 11  Z      0.00604     0.04789
            289  H 11 XX      0.00090     0.06797
            290  H 11 YY      0.00011     0.06975
            291  H 11 ZZ      0.00009     0.11287
            292  H 11 XY      0.00095     0.00018
            293  H 11 XZ      0.00081     0.00490
            294  H 11 YZ      0.00000     0.00530
            295  H 12  S      0.25273     0.19469
            296  H 12  S      0.45028     0.24427
            297  H 12  S      0.05937     0.11855
            298  H 12  X      0.00158     0.00203
            299  H 12  Y      0.00744     0.01097
            300  H 12  Z      0.00176     0.00223
            301  H 12  X      0.01036     0.02827
            302  H 12  Y      0.00496     0.04789
            303  H 12  Z      0.00830     0.02995
            304  H 12 XX      0.00031     0.06901
            305  H 12 YY      0.00064     0.11634
            306  H 12 ZZ      0.00100     0.06997
            307  H 12 XY      0.00009     0.00482
            308  H 12 XZ      0.00083     0.00014
            309  H 12 YZ      0.00000     0.00520
            310  H 13  S      0.25350     0.18783
            311  H 13  S      0.45419     0.24280
            312  H 13  S      0.06598     0.11978
            313  H 13  X      0.00550     0.00703
            314  H 13  Y      0.00275     0.00422
            315  H 13  Z      0.00247     0.00346
            316  H 13  X      0.00394     0.04163
            317  H 13  Y      0.01296     0.03425
            318  H 13  Z      0.00728     0.03207
            319  H 13 XX      0.00045     0.09716
            320  H 13 YY      0.00078     0.07788
            321  H 13 ZZ      0.00074     0.07475
            322  H 13 XY      0.00060     0.00524
            323  H 13 XZ      0.00030     0.00501
            324  H 13 YZ      0.00000     0.00195
            325  H 14  S      0.25265     0.18705
            326  H 14  S      0.45019     0.24159
            327  H 14  S      0.05899     0.11833
            328  H 14  X      0.00553     0.00710
            329  H 14  Y      0.00264     0.00400
            330  H 14  Z      0.00261     0.00367
            331  H 14  X      0.00421     0.04162
            332  H 14  Y      0.01247     0.03337
            333  H 14  Z      0.00697     0.03217
            334  H 14 XX      0.00047     0.09682
            335  H 14 YY      0.00074     0.07638
            336  H 14 ZZ      0.00074     0.07569
            337  H 14 XY      0.00062     0.00508
            338  H 14 XZ      0.00031     0.00516
            339  H 14 YZ      0.00000     0.00197
            340  H 15  S      0.24724     0.19083
            341  H 15  S      0.44652     0.23954
            342  H 15  S      0.04455     0.11368
            343  H 15  X      0.00162     0.00207
            344  H 15  Y      0.00191     0.00287
            345  H 15  Z      0.00725     0.01043
            346  H 15  X      0.00788     0.02783
            347  H 15  Y      0.01127     0.03044
            348  H 15  Z      0.00438     0.04757
            349  H 15 XX      0.00086     0.06731
            350  H 15 YY      0.00017     0.07159
            351  H 15 ZZ      0.00010     0.11218
            352  H 15 XY      0.00078     0.00024
            353  H 15 XZ      0.00096     0.00505
            354  H 15 YZ      0.00000     0.00518

          ----- MULLIKEN ATOMIC OVERLAP POPULATIONS -----
          (OFF-DIAGONAL ELEMENTS NEED TO BE MULTIPLIED BY 2)

             1           2           3           4           5

    1    8.5877397
    2   -0.0113746  13.2729261
    3    0.0201251   0.2122794   8.5891788
    4   -0.0004444   0.3447294  -0.0174335   4.9984030
    5    0.0004368   0.3463849  -0.0157975  -0.0318948   5.0192348
    6    0.0003316   0.3464323  -0.0161248  -0.0319422  -0.0315159
    7    0.0004421  -0.0159386   0.0008909   0.3645817  -0.0026193
    8    0.0005849  -0.0139720   0.0010335   0.3595019  -0.0003418
    9    0.0004317  -0.0160158   0.0008875   0.3647128   0.0022669
   10    0.0007884  -0.0167018   0.0007290   0.0025597   0.3636632
   11    0.0003689  -0.0134955   0.0013037  -0.0006518   0.3576005
   12    0.0006465  -0.0177481   0.0009098  -0.0025260   0.3654771
   13    0.0007681  -0.0165240   0.0007561   0.0025595  -0.0030718
   14    0.0006148  -0.0176489   0.0009276  -0.0024877   0.0023139
   15    0.0003869  -0.0134796   0.0012783  -0.0006553  -0.0002225

             6           7           8           9          10

    6    5.0173432
    7    0.0022849   0.4807259
    8   -0.0003713  -0.0114868   0.4585765
    9   -0.0025814  -0.0173234  -0.0114019   0.4799246
   10   -0.0030685   0.0000100   0.0000123  -0.0000708   0.4937233
   11   -0.0002471  -0.0001741  -0.0000455   0.0000137  -0.0107793
   12    0.0023328   0.0006549  -0.0002423  -0.0000115  -0.0201442
   13    0.3635233  -0.0000711   0.0000118   0.0000100   0.0007866
   14    0.3654634  -0.0000103  -0.0002413   0.0006464  -0.0000114
   15    0.3577407   0.0000127  -0.0000447  -0.0001798  -0.0001824

            11          12          13          14          15

   11    0.4508543
   12   -0.0095618   0.4799310
   13   -0.0001757  -0.0000102   0.4936751
   14    0.0000194  -0.0000668  -0.0198788   0.4791286
   15   -0.0000781   0.0000191  -0.0109294  -0.0096314   0.4514396

          TOTAL MULLIKEN AND LOWDIN ATOMIC POPULATIONS
       ATOM         MULL.POP.    CHARGE          LOW.POP.     CHARGE
    1 LA            8.601846    2.398154         8.774199    2.225801
    2 P            14.369853    0.630147        14.311003    0.688997
    3 O             8.780944   -0.780944         8.415640   -0.415640
    4 C             6.349012   -0.349012         6.026702   -0.026702
    5 C             6.371914   -0.371914         6.030655   -0.030655
    6 C             6.369601   -0.369601         6.043882   -0.043882
    7 H             0.801980    0.198020         0.943497    0.056503
    8 H             0.781573    0.218427         0.927457    0.072543
    9 H             0.801309    0.198691         0.929883    0.070117
   10 H             0.811314    0.188686         0.935947    0.064053
   11 H             0.774951    0.225049         0.924921    0.075079
   12 H             0.799660    0.200340         0.944346    0.055654
   13 H             0.811430    0.188570         0.935051    0.064949
   14 H             0.799138    0.200862         0.930001    0.069999
   15 H             0.775474    0.224526         0.926815    0.073185

          MULLIKEN SPHERICAL HARMONIC POPULATIONS
       ATOM           S       P       D      F      G      H      I    TOTAL
    1 LA            2.01    6.10    0.50   0.00   0.00   0.00   0.00    8.60
    2 P             5.34    8.39    0.57   0.07   0.00   0.00   0.00   14.37
    3 O             3.78    4.96    0.04   0.00   0.00   0.00   0.00    8.78
    4 C             3.27    3.00    0.07   0.01   0.00   0.00   0.00    6.35
    5 C             3.28    3.01    0.07   0.01   0.00   0.00   0.00    6.37
    6 C             3.28    3.01    0.07   0.01   0.00   0.00   0.00    6.37
    7 H             0.76    0.04    0.00   0.00   0.00   0.00   0.00    0.80
    8 H             0.74    0.03    0.00   0.00   0.00   0.00   0.00    0.78
    9 H             0.76    0.04    0.00   0.00   0.00   0.00   0.00    0.80
   10 H             0.77    0.03    0.00   0.00   0.00   0.00   0.00    0.81
   11 H             0.74    0.03    0.00   0.00   0.00   0.00   0.00    0.77
   12 H             0.76    0.03    0.00   0.00   0.00   0.00   0.00    0.80
   13 H             0.77    0.03    0.00   0.00   0.00   0.00   0.00    0.81
   14 H             0.76    0.03    0.00   0.00   0.00   0.00   0.00    0.80
   15 H             0.74    0.03    0.00   0.00   0.00   0.00   0.00    0.78

          -------------------------------
          BOND ORDER AND VALENCE ANALYSIS     BOND ORDER THRESHOLD=0.050
          -------------------------------

                   BOND                       BOND                       BOND
  ATOM PAIR DIST  ORDER      ATOM PAIR DIST  ORDER      ATOM PAIR DIST  ORDER
    1   3  2.091  0.681        2   3  1.701  0.775        2   4  1.770  1.024
    2   5  1.773  1.016        2   6  1.773  1.017        4   7  1.089  0.875
    4   8  1.095  0.858        4   9  1.090  0.875        5  10  1.089  0.877
    5  11  1.096  0.856        5  12  1.090  0.875        6  13  1.089  0.877
    6  14  1.090  0.875        6  15  1.096  0.857

                       TOTAL       BONDED        FREE
      ATOM            VALENCE     VALENCE     VALENCE
    1 LA                0.670       0.750      -0.079
    2 P                 4.580       4.227       0.353
    3 O                 2.055       1.493       0.562
    4 C                 3.931       3.640       0.292
    5 C                 3.933       3.640       0.293
    6 C                 3.933       3.640       0.293
    7 H                 0.976       0.925       0.051
    8 H                 0.968       0.917       0.050
    9 H                 0.976       0.925       0.051
   10 H                 0.979       0.927       0.052
   11 H                 0.966       0.916       0.050
   12 H                 0.974       0.923       0.051
   13 H                 0.979       0.928       0.052
   14 H                 0.974       0.923       0.051
   15 H                 0.967       0.916       0.050

          ---------------------
          ELECTROSTATIC MOMENTS
          ---------------------

 POINT   1           X           Y           Z (BOHR)    CHARGE
                 0.267170    1.259880   -4.843504        3.00 (A.U.)
         DX          DY          DZ         /D/  (DEBYE)
     0.720137   -0.157762   -1.016718    1.255867
 ...... END OF PROPERTY EVALUATION ......
 CPU     0: STEP CPU TIME=     0.21 TOTAL CPU TIME=     1508.2 (   25.1 MIN)
 TOTAL WALL CLOCK TIME=     1531.4 SECONDS, CPU UTILIZATION IS  98.49%
  $VIB   
          IVIB=   0 IATOM=   0 ICOORD=   0 E=     -565.6088586919
  1.132734397E-05 2.487597819E-06-6.865145426E-05 9.625960730E-05-6.730060159E-05
  4.215889957E-05 6.146397076E-06 3.802907154E-06 2.884576120E-05-2.224388495E-05
  1.522899822E-05-2.241542358E-05-3.508849817E-05 2.969310048E-05 1.588746137E-05
 -4.598413420E-05 1.000248583E-05 1.364371106E-05-1.032620804E-05-2.517143278E-06
 -1.754699477E-05 1.720307900E-06 1.513604517E-06-1.188995524E-06-1.206373073E-07
  1.196195761E-05-9.886104098E-06-2.633191476E-07 2.785183967E-05-3.202372607E-05
  1.370412652E-05-4.310684250E-05-5.720183980E-06-1.965452414E-05 3.924637031E-06
  4.763979756E-05-2.018798085E-05-2.390885860E-06-4.282119160E-05-2.175401066E-05
  9.694178669E-07 4.755950614E-05 4.646541470E-05 7.878927034E-06 4.518936983E-06
  7.201370076E-01-1.577622272E-01-1.016718314E+00
 ......END OF GEOMETRY SEARCH......
 CPU     0: STEP CPU TIME=     0.00 TOTAL CPU TIME=     1508.2 (   25.1 MIN)
 TOTAL WALL CLOCK TIME=     1531.4 SECONDS, CPU UTILIZATION IS  98.48%
               2991967  WORDS OF DYNAMIC MEMORY USED
 EXECUTION OF GAMESS TERMINATED NORMALLY Fri Jun 10 13:28:40 2016
 DDI: 44487344 bytes (42.4 MB / 5 MWords) used by master data server.

 ----------------------------------------
 CPU timing information for all processes
 ========================================
 0: 1505.887 + 2.369 = 1508.256
 1: 1506.173 + 2.279 = 1508.452
 2: 1506.326 + 2.334 = 1508.660
 3: 1505.161 + 2.307 = 1507.468
 4: 1507.292 + 2.421 = 1509.714
 5: 1504.721 + 2.485 = 1507.206
 6: 1507.435 + 2.366 = 1509.802
 7: 1505.318 + 2.336 = 1507.654
 8: 1507.586 + 2.376 = 1509.963
 9: 1507.69 + 2.369 = 1509.439
 10: 1506.97 + 2.421 = 1508.518
 11: 1507.111 + 2.372 = 1509.484
 12: 1506.453 + 2.394 = 1508.848
 13: 1506.256 + 2.402 = 1508.658
 14: 1507.03 + 2.352 = 1509.356
 15: 1506.729 + 1.790 = 1508.520
 16: 0.08 + 0.88 = 0.97
 17: 0.18 + 0.75 = 0.94
 18: 0.12 + 0.79 = 0.92
 19: 0.16 + 0.80 = 0.97
 20: 0.16 + 0.84 = 0.101
 21: 0.11 + 0.79 = 0.91
 22: 0.20 + 0.69 = 0.90
 23: 0.13 + 0.73 = 0.87
 24: 0.09 + 0.71 = 0.81
 25: 0.10 + 0.80 = 0.91
 26: 0.13 + 0.74 = 0.88
 27: 0.18 + 0.70 = 0.89
 28: 0.14 + 0.71 = 0.86
 29: 0.14 + 0.81 = 0.96
 30: 0.13 + 0.80 = 0.94
 31: 0.21 + 0.63 = 0.85
 ----------------------------------------
unset echo
----- accounting info -----
Files used on the master node node196 were:
-rw-r--r-- 1 fzahari quantum     1965 Jun 10 13:03 /local/scratch/fzahari/196755.share/ang_var-1680.F05
-rw-r--r-- 1 fzahari quantum 17178000 Jun 10 13:28 /local/scratch/fzahari/196755.share/ang_var-1680.F10
-rw-r--r-- 1 fzahari quantum        8 Jun 10 13:03 /local/scratch/fzahari/196755.share/ang_var-1680.nodes.mpd
ls: No match.
ls: No match.
ls: No match.
Fri Jun 10 13:28:43 CDT 2016
24103.479u 43.377s 25:35.84 1572.2%	0+0k 3448+233264io 1pf+0w
