----- GAMESS execution script 'rungms' -----
This job is running on host node157
under operating system Linux at Fri Jun 10 11:50:40 CDT 2016
PBS has assigned the following compute nodes to this run:
node157
Available scratch disk space (Kbyte units) at beginning of the job is
Filesystem           1K-blocks      Used Available Use% Mounted on
/dev/sda7            2670838024    311992 2534855248   1% /local
GAMESS temporary binary files will be written to /local/scratch/fzahari/196751.share
GAMESS supplementary output files will be written to /work1/quantum/fzahari/scr
Copying input file ang_var-1640.inp to your run's scratch directory...
cp ang_var-1640.inp /local/scratch/fzahari/196751.share/ang_var-1640.F05
unset echo
setenv I_MPI_WAIT_MODE enable
setenv I_MPI_PIN disable
setenv I_MPI_DEBUG 0
setenv I_MPI_STATS 0
setenv I_MPI_FABRICS dapl
setenv I_MPI_DAT_LIBRARY libdat2.so
unset echo
MPI kickoff will run GAMESS on 16 cores in 1 nodes.
The binary to be executed is /home/mschmidt/gamess/gamess.132.x
MPI will run 16 compute processes and 16 data servers,
    placing 16 of each process type onto each node.
The scratch disk space on each node is /local/scratch/fzahari/196751.share, with free space
Filesystem           1K-blocks      Used Available Use% Mounted on
/dev/sda7            2670838024    312016 2534855224   1% /local
setenv I_MPI_HYDRA_ENV all
setenv I_MPI_PERHOST 32
unset echo
mpiexec.hydra -f /local/scratch/fzahari/196751.share/ang_var-1640.processes.mpd -n 32 /home/mschmidt/gamess/gamess.132.x
          ******************************************************
          *         GAMESS VERSION =  5 DEC 2014 (R1)          *
          *             FROM IOWA STATE UNIVERSITY             *
          * M.W.SCHMIDT, K.K.BALDRIDGE, J.A.BOATZ, S.T.ELBERT, *
          *   M.S.GORDON, J.H.JENSEN, S.KOSEKI, N.MATSUNAGA,   *
          *          K.A.NGUYEN, S.J.SU, T.L.WINDUS,           *
          *       TOGETHER WITH M.DUPUIS, J.A.MONTGOMERY       *
          *         J.COMPUT.CHEM.  14, 1347-1363(1993)        *
          **************** 64 BIT INTEL VERSION ****************

  SINCE 1993, STUDENTS AND POSTDOCS WORKING AT IOWA STATE UNIVERSITY
  AND ALSO IN THEIR VARIOUS JOBS AFTER LEAVING ISU HAVE MADE IMPORTANT
  CONTRIBUTIONS TO THE CODE:
     IVANA ADAMOVIC, CHRISTINE AIKENS, YURI ALEXEEV, POOJA ARORA,
     ANDREY ASADCHEV, ROB BELL, PRADIPTA BANDYOPADHYAY, JONATHAN BENTZ,
     BRETT BODE, KURT BRORSEN, CALEB CARLIN, GALINA CHABAN, WEI CHEN,
     CHEOL HO CHOI, PAUL DAY, ALBERT DEFUSCO, NUWAN DESILVA, TIM DUDLEY,
     DMITRI FEDOROV, GRAHAM FLETCHER, MARK FREITAG, KURT GLAESEMANN,
     DAN KEMP, GRANT MERRILL, NORIYUKI MINEZAWA, JONATHAN MULLIN,
     TAKESHI NAGATA, SEAN NEDD, HEATHER NETZLOFF, BOSILJKA NJEGIC, RYAN OLSON,
     MIKE PAK, SPENCER PRUITT, LUKE ROSKOP, JIM SHOEMAKER, LYUDMILA SLIPCHENKO,
     TONY SMITH, SAROM SOK, JIE SONG, TETSUYA TAKETSUGU, SIMON WEBB,
     PENG XU, SOOHAENG YOO, FEDERICO ZAHARIEV

  ADDITIONAL CODE HAS BEEN PROVIDED BY COLLABORATORS IN OTHER GROUPS:
     IOWA STATE UNIVERSITY:
          JOE IVANIC, AARON WEST, LAIMUTIS BYTAUTAS, KLAUS RUEDENBERG
     UNIVERSITY OF TOKYO: KIMIHIKO HIRAO, TAKAHITO NAKAJIMA,
          TAKAO TSUNEDA, MUNEAKI KAMIYA, SUSUMU YANAGISAWA,
          KIYOSHI YAGI, MAHITO CHIBA, SEIKEN TOKURA, NAOAKI KAWAKAMI
     UNIVERSITY OF AARHUS: FRANK JENSEN
     UNIVERSITY OF IOWA: VISVALDAS KAIRYS, HUI LI
     NATIONAL INST. OF STANDARDS AND TECHNOLOGY: WALT STEVENS, DAVID GARMER
     UNIVERSITY OF PISA: BENEDETTA MENNUCCI, JACOPO TOMASI
     UNIVERSITY OF MEMPHIS: HENRY KURTZ, PRAKASHAN KORAMBATH
     UNIVERSITY OF ALBERTA: TOBY ZENG, MARIUSZ KLOBUKOWSKI
     UNIVERSITY OF NEW ENGLAND: MARK SPACKMAN
     MIE UNIVERSITY: HIROAKI UMEDA
     NAT. INST. OF ADVANCED INDUSTRIAL SCIENCE AND TECHNOLOGY: KAZUO KITAURA
     MICHIGAN STATE UNIVERSITY:
          KAROL KOWALSKI, MARTA WLOCH, JEFFREY GOUR, JESSE LUTZ,
          WEI LI, PIOTR PIECUCH
     UNIVERSITY OF SILESIA: MONIKA MUSIAL, STANISLAW KUCHARSKI
     FACULTES UNIVERSITAIRES NOTRE-DAME DE LA PAIX:
          OLIVIER QUINET, BENOIT CHAMPAGNE
     UNIVERSITY OF CALIFORNIA - SANTA BARBARA: BERNARD KIRTMAN
     INSTITUTE FOR MOLECULAR SCIENCE:
          KAZUYA ISHIMURA, MICHIO KATOUDA, AND SHIGERU NAGASE
     UNIVERSITY OF NOTRE DAME: ANNA POMOGAEVA, DAN CHIPMAN
     KYUSHU UNIVERSITY:
          HARUYUKI NAKANO,
          FENG LONG GU, JACEK KORCHOWIEC, MARCIN MAKOWSKI, AND YURIKO AOKI,
          HIROTOSHI MORI AND EISAKU MIYOSHI
     PENNSYLVANIA STATE UNIVERSITY:
          TZVETELIN IORDANOV, CHET SWALINA, JONATHAN SKONE,
          SHARON HAMMES-SCHIFFER
     WASEDA UNIVERSITY:
          MASATO KOBAYASHI, TOMOKO AKAMA, TSUGUKI TOUMA,
          TAKESHI YOSHIKAWA, YASUHIRO IKABATA, HIROMI NAKAI
     NANJING UNIVERSITY: SHUHUA LI
     UNIVERSITY OF NEBRASKA:
          PEIFENG SU, DEJUN SI, NANDUN THELLAMUREGE, YALI WANG, HUI LI
     UNIVERSITY OF ZURICH: ROBERTO PEVERATI, KIM BALDRIDGE
     N. COPERNICUS UNIVERSITY AND JACKSON STATE UNIVERSITY:
          MARIA BARYSZ
     UNIVERSITY OF COPENHAGEN: CASPER STEINMANN
     TOKYO INSTITUTE OF TECHNOLOGY: HIROYA NAKATA
     NAGOYA UNIVERSITY: YOSHIO NISHIMOTO, STEPHAN IRLE


 PARALLEL VERSION RUNNING ON       16 PROCESSORS IN        1 NODES.

 EXECUTION OF GAMESS BEGUN Fri Jun 10 11:50:40 2016

            ECHO OF THE FIRST FEW INPUT CARDS -
 INPUT CARD> $ZMAT DLC=.T. AUTO=.T. $END                                                    
 INPUT CARD> $ZMAT IFZMAT(1)=2, 1 , 3 , 2  FVALUE(1)= 164.0 $END                            
 INPUT CARD> $CONTRL COORD=UNIQUE NZVAR= 39 $END                                            
 INPUT CARD> $CONTRL ICHARG=+3 MULT=1                                                       
 INPUT CARD>         MPLEVL=2                                                               
 INPUT CARD>         SCFTYP=RHF                                                             
 INPUT CARD>         MAXIT=200 ISPHER=1 ICUT=11                                             
 INPUT CARD>         RUNTYP=OPTIMIZE                                                        
 INPUT CARD>         PP=READ                                                                
 INPUT CARD>         $END                                                                   
 INPUT CARD> $SCF    DIRSCF=.T. FDIFF=.F. $END                                              
 INPUT CARD> $TRANS  DIRTRF=.T. $END                                                        
 INPUT CARD> $SYSTEM MWORDS=300 MEMDDI=300 $END                                             
 INPUT CARD> $GUESS  GUESS=HUCKEL $END                                                      
 INPUT CARD> $BASIS  BASNAM(1)=METAL,                                                       
 INPUT CARD>                   LIGP,                                                        
 INPUT CARD>                   LIGO,                                                        
 INPUT CARD>                   LIGC,                                                        
 INPUT CARD>                   LIGC,                                                        
 INPUT CARD>                   LIGC,                                                        
 INPUT CARD>                   LIGH,                                                        
 INPUT CARD>                   LIGH,                                                        
 INPUT CARD>                   LIGH,                                                        
 INPUT CARD>                   LIGH,                                                        
 INPUT CARD>                   LIGH,                                                        
 INPUT CARD>                   LIGH,                                                        
 INPUT CARD>                   LIGH,                                                        
 INPUT CARD>                   LIGH,                                                        
 INPUT CARD>                   LIGH                                                         
 INPUT CARD> $END                                                                           
 INPUT CARD> $DATA                                                                          
 INPUT CARD>                                                                                
 INPUT CARD> C1                                                                             
 INPUT CARD> LA 57.0 0.31435 0.88028 -4.02887                                               
 INPUT CARD> P 15.0 -0.0139059728059 0.285608369513 -0.327227229371                         
 INPUT CARD> O 8.0 -0.10013 0.67027 -1.98246                                                
 INPUT CARD> C 6.0 -1.45507632209 0.990294556937 0.425185393992                             
 INPUT CARD> C 6.0 1.48575948891 1.01105213257 0.276461950727                               
 INPUT CARD> C 6.0 0.00370314546269 -1.48334362166 -0.226112220715                          
 INPUT CARD> H 1.0 -1.46174896016 2.07522978642 0.327301426309                              
 INPUT CARD> H 1.0 -1.40445780943 0.745293389014 1.49157064698                              
 INPUT CARD> H 1.0 -2.36664321718 0.552309232723 0.0203365376975                            
 INPUT CARD> H 1.0 2.35795737872 0.585575073951 -0.218449464579                             
 INPUT CARD> H 1.0 1.54635130807 0.766206405261 1.34237160317                               
 INPUT CARD> H 1.0 1.46728418648 2.09589556841 0.1791228572                                 
 INPUT CARD> H 1.0 0.881809194452 -1.89880713363 -0.719086308318                            
 INPUT CARD> H 1.0 -0.913753883977 -1.91144934563 -0.628209238281                           
 INPUT CARD> H 1.0 0.0593654141466 -1.73671147658 0.838076654831                            
 INPUT CARD> $END                                                                           
 INPUT CARD>!                                                                               
  300000000 WORDS OF MEMORY AVAILABLE

     BASIS OPTIONS
     -------------
     GBASIS=             IGAUSS=       0      POLAR=NONE    
     NDFUNC=       0     NFFUNC=       0     DIFFSP=       F
     NPFUNC=       0      DIFFS=       F     BASNAM=METAL   

 USING BASNAM FOR ATOM CUSTOMIZED BASIS CONSTRUCTION
     ----------------
     ATOM  BASIS NAME
     ----------------
       1   METAL   
       2   LIGP    
       3   LIGO    
       4   LIGC    
       5   LIGC    
       6   LIGC    
       7   LIGH    
       8   LIGH    
       9   LIGH    
      10   LIGH    
      11   LIGH    
      12   LIGH    
      13   LIGH    
      14   LIGH    
      15   LIGH    
 NOW LOCATING ALL   15 BASIS SETS IN YOUR INPUT FILE...
 FOUND BASIS SET  $METAL 
  SBKJC                        
                               
  $END                         
 FOUND BASIS SET  $LIGP  
  CCT                          
                               
  $END                         
 FOUND BASIS SET  $LIGO  
  CCT                          
                               
  $END                         
 FOUND BASIS SET  $LIGC  
  CCT                          
                               
  $END                         
 FOUND BASIS SET  $LIGH  
  CCT                          
                               
  $END                         
    5 UNIQUE ATOM CUSTOMIZED BASIS SETS WERE FOUND.

     SEARCHING FOR $MCP
     $MCP GROUP NOT FOUND


     RUN TITLE
     ---------
                                                                                 

 THE POINT GROUP OF THE MOLECULE IS C1      
 THE ORDER OF THE PRINCIPAL AXIS IS     0

 ATOM      ATOMIC                      COORDINATES (BOHR)
           CHARGE         X                   Y                   Z
 LA         57.0     0.5940353642        1.6634879925       -7.6134603402
 P          15.0    -0.0262784782        0.5397215582       -0.6183697992
 O           8.0    -0.1892182632        1.2666266378       -3.7463061816
 C           6.0    -2.7496955400        1.8713853597        0.8034838886
 C           6.0     2.8076783177        1.9106114899        0.5224373329
 C           6.0     0.0069979302       -2.8031129906       -0.4272901396
 H           1.0    -2.7623049975        3.9216156579        0.6185100111
 H           1.0    -2.6540404211        1.4084002857        2.8186598141
 H           1.0    -4.4723071912        1.0437131103        0.0384304838
 H           1.0     4.4558933365        1.1065764350       -0.4128096302
 H           1.0     2.9221802530        1.4479201560        2.5367145037
 H           1.0     2.7727650586        3.9606683232        0.3384931182
 H           1.0     1.6663777510       -3.5882251861       -1.3588760842
 H           1.0    -1.7267444609       -3.6121155027       -1.1871433233
 H           1.0     0.1121843659       -3.2819088105        1.5837352343

          INTERNUCLEAR DISTANCES (ANGS.)
          ------------------------------

                1 LA         2 P          3 O          4 C          5 C     

   1 LA      0.0000000    3.7634486    2.0984975 *  4.7939109    4.4637635  
   2 P       3.7634486    0.0000000    1.7015272 *  1.7719140 *  1.7719215 *
   3 O       2.0984975 *  1.7015272 *  0.0000000    2.7811961 *  2.7809902 *
   4 C       4.7939109    1.7719140 *  2.7811961 *  0.0000000    2.9446672 *
   5 C       4.4637635    1.7719215 *  2.7809902 *  2.9446672 *  0.0000000  
   6 C       4.4882274    1.7719271 *  2.7809334 *  2.9446752 *  2.9446701 *
   7 H       4.8537266    2.3931991 *  3.0270309    1.0893623 *  3.1341450  
   8 H       5.7834061    2.3351596 *  3.7115749    1.0953380 *  3.1465017  
   9 H       4.8673774    2.3931783 *  3.0269111    1.0893521 *  3.8880653  
  10 H       4.3338766    2.3932297 *  3.0267309    3.8880959    1.0893563 *
  11 H       5.5119032    2.3351526 *  3.7114161    3.1464287    1.0953466 *
  12 H       4.5292585    2.3932101 *  3.0268194    3.1341811    1.0893583 *
  13 H       4.3588993    2.3932259 *  3.0266277    3.8880972    3.1341910  
  14 H       4.5679848    2.3931943 *  3.0267563    3.1341327    3.8880727  
  15 H       5.5318018    2.3351829 *  3.7113913    3.1465179    3.1464609  

                6 C          7 H          8 H          9 H         10 H     

   1 LA      4.4882274    4.8537266    5.7834061    4.8673774    4.3338766  
   2 P       1.7719271 *  2.3931991 *  2.3351596 *  2.3931783 *  2.3932297 *
   3 O       2.7809334 *  3.0270309    3.7115749    3.0269111    3.0267309  
   4 C       2.9446752 *  1.0893623 *  1.0953380 *  1.0893521 *  3.8880959  
   5 C       2.9446701 *  3.1341450    3.1465017    3.8880653    1.0893563 *
   6 C       0.0000000    3.8880922    3.1464543    3.1341923    3.1341660  
   7 H       3.8880922    0.0000000    1.7684841 *  1.7978732 *  4.1360696  
   8 H       3.1464543    1.7684841 *  0.0000000    1.7684947 *  4.1358732  
   9 H       3.1341923    1.7978732 *  1.7684947 *  0.0000000    4.7307479  
  10 H       3.1341660    4.1360696    4.1358732    4.7307479    0.0000000  
  11 H       3.1464870    3.4340322    2.9546526 *  4.1358258    1.7684724 *
  12 H       3.8880893    2.9328517 *  3.4341735    4.1360454    1.7978961 *
  13 H       1.0893593 *  4.7307675    4.1358540    4.1360803    2.9328835 *
  14 H       1.0893502 *  4.1360500    3.4340267    2.9328494 *  4.1360765  
  15 H       1.0953500 *  4.1358888    2.9546880 *  3.4342150    3.4340628  

               11 H         12 H         13 H         14 H         15 H     

   1 LA      5.5119032    4.5292585    4.3588993    4.5679848    5.5318018  
   2 P       2.3351526 *  2.3932101 *  2.3932259 *  2.3931943 *  2.3351829 *
   3 O       3.7114161    3.0268194    3.0266277    3.0267563    3.7113913  
   4 C       3.1464287    3.1341811    3.8880972    3.1341327    3.1465179  
   5 C       1.0953466 *  1.0893583 *  3.1341910    3.8880727    3.1464609  
   6 C       3.1464870    3.8880893    1.0893593 *  1.0893502 *  1.0953500 *
   7 H       3.4340322    2.9328517 *  4.7307675    4.1360500    4.1358888  
   8 H       2.9546526 *  3.4341735    4.1358540    3.4340267    2.9546880 *
   9 H       4.1358258    4.1360454    4.1360803    2.9328494 *  3.4342150  
  10 H       1.7684724 *  1.7978961 *  2.9328835 *  4.1360765    3.4340628  
  11 H       0.0000000    1.7684662 *  3.4341698    4.1358369    2.9546638 *
  12 H       1.7684662 *  0.0000000    4.1360864    4.7307442    4.1358593  
  13 H       3.4341698    4.1360864    0.0000000    1.7979058 *  1.7684584 *
  14 H       4.1358369    4.7307442    1.7979058 *  0.0000000    1.7684708 *
  15 H       2.9546638 *  4.1358593    1.7684584 *  1.7684708 *  0.0000000  

  * ... LESS THAN  3.000


     ATOMIC BASIS SET
     ----------------
 THE CONTRACTED PRIMITIVE FUNCTIONS HAVE BEEN UNNORMALIZED
 THE CONTRACTED BASIS FUNCTIONS ARE NOW NORMALIZED TO UNITY

  SHELL TYPE  PRIMITIVE        EXPONENT          CONTRACTION COEFFICIENT(S)

 LA        

      1   L       1             9.1730000   -0.054833023521   -0.009797991527
      1   L       2             3.1200000    0.676604290237    0.231261800020
      1   L       3             2.1040000   -1.034429443730   -0.601214480110
      1   L       4             1.3200000   -0.518907222591    0.195188831214
      1   L       5             0.4960000    1.631603699894    1.076136069429

      2   D       6             1.2380000   -0.053797021791
      2   D       7             0.6061000    0.380144153981
      2   D       8             0.2518000    0.720349291785

      3   D       9             0.0978700    1.000000000000

      4   L      10             0.6182000   -0.107095028128   -0.051868986063
      4   L      11             0.0454600    1.033448271434    1.008107729120

      5   L      12             0.0177500    1.000000000000    1.000000000000

      6   L      13             0.2004000    1.000000000000    1.000000000000

      7   D      14             0.0353600    1.000000000000

 P         

      8   S      15        312400.0000000    0.000057689641
      8   S      16         46800.0000000    0.000448246591
      8   S      17         10650.0000000    0.002349131061
      8   S      18          3018.0000000    0.009781571802
      8   S      19           986.8000000    0.034142936511
      8   S      20           357.4000000    0.100192955985
      8   S      21           139.6000000    0.234346168617
      8   S      22            57.6300000    0.382391849918
      8   S      23            24.6000000    0.318052941833
      8   S      24            10.1200000    0.070770999093
      8   S      25             4.2830000   -0.001817789630
      8   S      26             1.8050000    0.002161561737
      8   S      27             0.2782000    0.000432249354

      9   S      28        312400.0000000   -0.000016380204
      9   S      29         46800.0000000   -0.000127233535
      9   S      30         10650.0000000   -0.000668625166
      9   S      31          3018.0000000   -0.002795303744
      9   S      32           986.8000000   -0.009928227435
      9   S      33           357.4000000   -0.030244566456
      9   S      34           139.6000000   -0.077884705328
      9   S      35            57.6300000   -0.156724571545
      9   S      36            24.6000000   -0.198042753651
      9   S      37            10.1200000    0.037971251521
      9   S      38             4.2830000    0.552751544147
      9   S      39             1.8050000    0.542611452452
      9   S      40             0.2782000   -0.009675942874

     10   S      41        312400.0000000    0.000006865735
     10   S      42         46800.0000000    0.000053281983
     10   S      43         10650.0000000    0.000280421002
     10   S      44          3018.0000000    0.001170789768
     10   S      45           986.8000000    0.004173591138
     10   S      46           357.4000000    0.012720496749
     10   S      47           139.6000000    0.033152766352
     10   S      48            57.6300000    0.067671246836
     10   S      49            24.6000000    0.089831018862
     10   S      50            10.1200000   -0.020305232360
     10   S      51             4.2830000   -0.313280408979
     10   S      52             1.8050000   -0.563687905527
     10   S      53             0.2782000    1.117494073734

     11   S      54             0.6158000    1.000000000000

     12   S      55             0.1055000    1.000000000000

     13   P      56           504.9000000    0.002433660431
     13   P      57           119.4000000    0.019305559477
     13   P      58            37.9600000    0.088473106893
     13   P      59            13.9500000    0.254701981099
     13   P      60             5.4570000    0.440199242653
     13   P      61             2.1770000    0.383632006272
     13   P      62             0.2877000   -0.003946337074

     14   P      63           504.9000000   -0.000954298933
     14   P      64           119.4000000   -0.007664025747
     14   P      65            37.9600000   -0.035465925259
     14   P      66            13.9500000   -0.106164716437
     14   P      67             5.4570000   -0.187210586037
     14   P      68             2.1770000   -0.181495819791
     14   P      69             0.2877000    0.991672644618

     15   P      70             0.8010000    1.000000000000

     16   P      71             0.0971400    1.000000000000

     17   D      72             0.6480000    1.000000000000

     18   D      73             0.2180000    1.000000000000

     19   F      74             0.4520000    1.000000000000

     20   D      75             3.1200000    1.000000000000

 O         

     21   S      76         15330.0000000    0.000520198307
     21   S      77          2299.0000000    0.004023344781
     21   S      78           522.4000000    0.020729083329
     21   S      79           147.3000000    0.081082327080
     21   S      80            47.5500000    0.236226352118
     21   S      81            16.7600000    0.443518209420
     21   S      82             6.2070000    0.358670588689
     21   S      83             0.6882000   -0.008349797237

     22   S      84         15330.0000000   -0.000197236012
     22   S      85          2299.0000000   -0.001535010700
     22   S      86           522.4000000   -0.007951183914
     22   S      87           147.3000000   -0.032113452892
     22   S      88            47.5500000   -0.100269643049
     22   S      89            16.7600000   -0.234047111838
     22   S      90             6.2070000   -0.301410927756
     22   S      91             0.6882000    1.034919649508

     23   S      92             1.7520000    1.000000000000

     24   S      93             0.2384000    1.000000000000

     25   P      94            34.4600000    0.041163489568
     25   P      95             7.7490000    0.257762835858
     25   P      96             2.2800000    0.802419274427

     26   P      97             0.7156000    1.000000000000

     27   P      98             0.2140000    1.000000000000

     28   D      99             2.3140000    1.000000000000

     29   D     100             0.6450000    1.000000000000

     30   F     101             1.4280000    1.000000000000

 C         

     31   S     102          8236.0000000    0.000542430189
     31   S     103          1235.0000000    0.004196427901
     31   S     104           280.8000000    0.021540914108
     31   S     105            79.2700000    0.083614949614
     31   S     106            25.5900000    0.239871618922
     31   S     107             8.9970000    0.443751820060
     31   S     108             3.3190000    0.353579696469
     31   S     109             0.3643000   -0.009176366076

     32   S     110          8236.0000000   -0.000196392234
     32   S     111          1235.0000000   -0.001525950274
     32   S     112           280.8000000   -0.007890449028
     32   S     113            79.2700000   -0.031514870532
     32   S     114            25.5900000   -0.096910008320
     32   S     115             8.9970000   -0.220541526288
     32   S     116             3.3190000   -0.296069112937
     32   S     117             0.3643000    1.040503432950

     33   S     118             0.9059000    1.000000000000

     34   S     119             0.1285000    1.000000000000

     35   P     120            18.7100000    0.039426387165
     35   P     121             4.1330000    0.244088984924
     35   P     122             1.2000000    0.815492008943

     36   P     123             0.3827000    1.000000000000

     37   P     124             0.1209000    1.000000000000

     38   D     125             1.0970000    1.000000000000

     39   D     126             0.3180000    1.000000000000

     40   F     127             0.7610000    1.000000000000

 C         

     41   S     128          8236.0000000    0.000542430189
     41   S     129          1235.0000000    0.004196427901
     41   S     130           280.8000000    0.021540914108
     41   S     131            79.2700000    0.083614949614
     41   S     132            25.5900000    0.239871618922
     41   S     133             8.9970000    0.443751820060
     41   S     134             3.3190000    0.353579696469
     41   S     135             0.3643000   -0.009176366076

     42   S     136          8236.0000000   -0.000196392234
     42   S     137          1235.0000000   -0.001525950274
     42   S     138           280.8000000   -0.007890449028
     42   S     139            79.2700000   -0.031514870532
     42   S     140            25.5900000   -0.096910008320
     42   S     141             8.9970000   -0.220541526288
     42   S     142             3.3190000   -0.296069112937
     42   S     143             0.3643000    1.040503432950

     43   S     144             0.9059000    1.000000000000

     44   S     145             0.1285000    1.000000000000

     45   P     146            18.7100000    0.039426387165
     45   P     147             4.1330000    0.244088984924
     45   P     148             1.2000000    0.815492008943

     46   P     149             0.3827000    1.000000000000

     47   P     150             0.1209000    1.000000000000

     48   D     151             1.0970000    1.000000000000

     49   D     152             0.3180000    1.000000000000

     50   F     153             0.7610000    1.000000000000

 C         

     51   S     154          8236.0000000    0.000542430189
     51   S     155          1235.0000000    0.004196427901
     51   S     156           280.8000000    0.021540914108
     51   S     157            79.2700000    0.083614949614
     51   S     158            25.5900000    0.239871618922
     51   S     159             8.9970000    0.443751820060
     51   S     160             3.3190000    0.353579696469
     51   S     161             0.3643000   -0.009176366076

     52   S     162          8236.0000000   -0.000196392234
     52   S     163          1235.0000000   -0.001525950274
     52   S     164           280.8000000   -0.007890449028
     52   S     165            79.2700000   -0.031514870532
     52   S     166            25.5900000   -0.096910008320
     52   S     167             8.9970000   -0.220541526288
     52   S     168             3.3190000   -0.296069112937
     52   S     169             0.3643000    1.040503432950

     53   S     170             0.9059000    1.000000000000

     54   S     171             0.1285000    1.000000000000

     55   P     172            18.7100000    0.039426387165
     55   P     173             4.1330000    0.244088984924
     55   P     174             1.2000000    0.815492008943

     56   P     175             0.3827000    1.000000000000

     57   P     176             0.1209000    1.000000000000

     58   D     177             1.0970000    1.000000000000

     59   D     178             0.3180000    1.000000000000

     60   F     179             0.7610000    1.000000000000

 H         

     61   S     180            33.8700000    0.025494863235
     61   S     181             5.0950000    0.190362765893
     61   S     182             1.1590000    0.852162022245

     62   S     183             0.3258000    1.000000000000

     63   S     184             0.1027000    1.000000000000

     64   P     185             1.4070000    1.000000000000

     65   P     186             0.3880000    1.000000000000

     66   D     187             1.0570000    1.000000000000

 H         

     67   S     188            33.8700000    0.025494863235
     67   S     189             5.0950000    0.190362765893
     67   S     190             1.1590000    0.852162022245

     68   S     191             0.3258000    1.000000000000

     69   S     192             0.1027000    1.000000000000

     70   P     193             1.4070000    1.000000000000

     71   P     194             0.3880000    1.000000000000

     72   D     195             1.0570000    1.000000000000

 H         

     73   S     196            33.8700000    0.025494863235
     73   S     197             5.0950000    0.190362765893
     73   S     198             1.1590000    0.852162022245

     74   S     199             0.3258000    1.000000000000

     75   S     200             0.1027000    1.000000000000

     76   P     201             1.4070000    1.000000000000

     77   P     202             0.3880000    1.000000000000

     78   D     203             1.0570000    1.000000000000

 H         

     79   S     204            33.8700000    0.025494863235
     79   S     205             5.0950000    0.190362765893
     79   S     206             1.1590000    0.852162022245

     80   S     207             0.3258000    1.000000000000

     81   S     208             0.1027000    1.000000000000

     82   P     209             1.4070000    1.000000000000

     83   P     210             0.3880000    1.000000000000

     84   D     211             1.0570000    1.000000000000

 H         

     85   S     212            33.8700000    0.025494863235
     85   S     213             5.0950000    0.190362765893
     85   S     214             1.1590000    0.852162022245

     86   S     215             0.3258000    1.000000000000

     87   S     216             0.1027000    1.000000000000

     88   P     217             1.4070000    1.000000000000

     89   P     218             0.3880000    1.000000000000

     90   D     219             1.0570000    1.000000000000

 H         

     91   S     220            33.8700000    0.025494863235
     91   S     221             5.0950000    0.190362765893
     91   S     222             1.1590000    0.852162022245

     92   S     223             0.3258000    1.000000000000

     93   S     224             0.1027000    1.000000000000

     94   P     225             1.4070000    1.000000000000

     95   P     226             0.3880000    1.000000000000

     96   D     227             1.0570000    1.000000000000

 H         

     97   S     228            33.8700000    0.025494863235
     97   S     229             5.0950000    0.190362765893
     97   S     230             1.1590000    0.852162022245

     98   S     231             0.3258000    1.000000000000

     99   S     232             0.1027000    1.000000000000

    100   P     233             1.4070000    1.000000000000

    101   P     234             0.3880000    1.000000000000

    102   D     235             1.0570000    1.000000000000

 H         

    103   S     236            33.8700000    0.025494863235
    103   S     237             5.0950000    0.190362765893
    103   S     238             1.1590000    0.852162022245

    104   S     239             0.3258000    1.000000000000

    105   S     240             0.1027000    1.000000000000

    106   P     241             1.4070000    1.000000000000

    107   P     242             0.3880000    1.000000000000

    108   D     243             1.0570000    1.000000000000

 H         

    109   S     244            33.8700000    0.025494863235
    109   S     245             5.0950000    0.190362765893
    109   S     246             1.1590000    0.852162022245

    110   S     247             0.3258000    1.000000000000

    111   S     248             0.1027000    1.000000000000

    112   P     249             1.4070000    1.000000000000

    113   P     250             0.3880000    1.000000000000

    114   D     251             1.0570000    1.000000000000

 TOTAL NUMBER OF BASIS SET SHELLS             =  114
 NUMBER OF CARTESIAN GAUSSIAN BASIS FUNCTIONS =  354
 NOTE: THIS RUN WILL RESTRICT THE MO VARIATION SPACE TO SPHERICAL HARMONICS.
 THE NUMBER OF ORBITALS KEPT IN THE VARIATIONAL SPACE WILL BE PRINTED LATER.
 NUMBER OF ELECTRONS                          =  104
 CHARGE OF MOLECULE                           =    3
 SPIN MULTIPLICITY                            =    1
 NUMBER OF OCCUPIED ORBITALS (ALPHA)          =   52
 NUMBER OF OCCUPIED ORBITALS (BETA )          =   52
 TOTAL NUMBER OF ATOMS                        =   15
 THE NUCLEAR REPULSION ENERGY IS      665.9674888719
 NOTE THIS RUN IS USING CORE POTENTIALS, AND THE NUMBER OF ELECTRONS,
 OCCUPIED ORBITALS, AND NUCLEAR REPULSION ENERGY WILL BE ADJUSTED BELOW
 AFTER REMOVAL OF THE CORE CHARGES.

     $CONTRL OPTIONS
     ---------------
 SCFTYP=RHF          RUNTYP=OPTIMIZE     EXETYP=RUN     
 MPLEVL=       2     CITYP =NONE         CCTYP =NONE         VBTYP =NONE    
 DFTTYP=NONE         TDDFT =NONE    
 MULT  =       1     ICHARG=       3     NZVAR =      39     COORD =UNIQUE  
 PP    =READ         RELWFN=NONE         LOCAL =NONE         NUMGRD=       F
 ISPHER=       1     NOSYM =       0     MAXIT =     200     UNITS =ANGS    
 PLTORB=       F     MOLPLT=       F     AIMPAC=       F     FRIEND=        
 NPRINT=       7     IREST =       0     GEOM  =INPUT   
 NORMF =       0     NORMP =       0     ITOL  =      20     ICUT  =      11
 INTTYP=BEST         GRDTYP=BEST         QMTTOL= 1.0E-06

     $SYSTEM OPTIONS
     ---------------
  REPLICATED MEMORY=   300000000 WORDS (ON EVERY NODE).
 DISTRIBUTED MEMDDI=         300 MILLION WORDS IN AGGREGATE,
 MEMDDI DISTRIBUTED OVER  16 PROCESSORS IS    18750000 WORDS/PROCESSOR.
 TOTAL MEMORY REQUESTED ON EACH PROCESSOR=   318750000 WORDS.
 TIMLIM=      525600.00 MINUTES, OR     365.0 DAYS.
 PARALL= T  BALTYP=  DLB     KDIAG=    0  COREFL= F
 MXSEQ2=     300 MXSEQ3=     150  mem10=         0

          --------------
          ECP POTENTIALS
          --------------

 PARAMETERS FOR "LA-ECP  " ON ATOM    1 WITH ZCORE  46 AND LMAX  4 ARE
 FOR L= 4      COEFF    N           ZETA
    1       -2.85665    1        1.42345
 FOR L= 0      COEFF    N           ZETA
    1        8.85347    0       22.29739
    2      -68.41778    2        1.64320
    3      110.12463    2        1.85122
 FOR L= 1      COEFF    N           ZETA
    1        2.98675    0        1.77635
    2      -35.51815    2        3.98941
    3       53.65423    2        2.47524
 FOR L= 2      COEFF    N           ZETA
    1        1.67298    0        1.52169
    2       18.46625    2        1.52182
 FOR L= 3      COEFF    N           ZETA
    1       -4.64430    1        2.67762
    2      -14.43101    1       10.06608

 THE ECP RUN REMOVES   46 CORE ELECTRONS, AND THE SAME NUMBER OF PROTONS.
 NUMBER OF ELECTRONS KEPT IN THE CALCULATION IS =   58
 NUMBER OF OCCUPIED ORBITALS (ALPHA) KEPT IS    =   29
 NUMBER OF OCCUPIED ORBITALS (BETA ) KEPT IS    =   29
 THE ADJUSTED NUCLEAR REPULSION ENERGY=      335.4746960318
          ECP ANGULAR INTS.........     0.02 SECONDS

          ----------------
          PROPERTIES INPUT
          ----------------

     MOMENTS            FIELD           POTENTIAL          DENSITY
 IEMOM =       1   IEFLD =       0   IEPOT =       0   IEDEN =       0
 WHERE =COMASS     WHERE =NUCLEI     WHERE =NUCLEI     WHERE =NUCLEI  
 OUTPUT=BOTH       OUTPUT=BOTH       OUTPUT=BOTH       OUTPUT=BOTH    
 IEMINT=       0   IEFINT=       0                     IEDINT=       0
                                                       MORB  =       0
          EXTRAPOLATION IN EFFECT
          SOSCF IN EFFECT
 ORBITAL PRINTING OPTION: NPREO=     1   354     2     1

     -------------------------------
     INTEGRAL TRANSFORMATION OPTIONS
     -------------------------------
     NWORD  =            0
     CUTOFF = 1.0E-09     MPTRAN =       0
     DIRTRF =       T     AOINTS =DUP     

          ----------------------
          INTEGRAL INPUT OPTIONS
          ----------------------
 NOPK  =       1 NORDER=       0 SCHWRZ=       T

          -----------------------
          MP2 CONTROL INFORMATION
          -----------------------
          NACORE =       13  NBCORE =       13
          LMOMP2 =        F  AOINTS = DUP     
          METHOD =        2  NWORD  =               0
          MP2PRP =        F  OSPT   = NONE    
          CUTOFF = 1.00E-09  CPHFBS = BASISAO 
          CODE   = DDI     

          NUMBER OF CORE -A-  ORBITALS =    13
          NUMBER OF CORE -B-  ORBITALS =    13
          NUMBER OF OCC. -A-  ORBITALS =    29
          NUMBER OF OCC. -B-  ORBITALS =    29
          NUMBER OF MOLECULAR ORBITALS =   354
          NUMBER OF   BASIS  FUNCTIONS =   354

 
 
 -----------------------------------------------
  STATISTICS ON AUTOMATIC COORDINATE GENERATION 
 -----------------------------------------------
  NUMBER OF USER SPECIFIED BONDS                              0
  NUMBER OF BONDS                                            14
  NUMBER OF ANGLES                                           25
  NUMBER OF TORSIONS                                         30
  NUMBER OF EXTRA COORD.                                      0
  NUMBER OF EXTRA COORD. FOR CONSTRAINTS                      0
  NUMBER OF CONSTRAINED COORD.                                1
 
  TOTAL NUMBER OF PRIMITIVES                                 69
 -----------------------------------------------

   --- ENCODED Z MATRIX ---
 COORD  TYPE   I   J   K   L   M   N
    1      2    1   3   2
    2      1    1   3
    3      1    2   4
    4      1    2   3
    5      1    2   6
    6      1    2   5
    7      1    4   8
    8      1    4   7
    9      1    4   9
   10      1    5  12
   11      1    5  11
   12      1    5  10
   13      1    6  15
   14      1    6  14
   15      1    6  13
   16      2    2   5  11
   17      2    2   4   8
   18      2    2   6  13
   19      2    2   6  14
   20      2    2   4   9
   21      2    2   5  12
   22      2    2   5  10
   23      2    2   4   7
   24      2    2   6  15
   25      2    3   2   4
   26      2    3   2   5
   27      2    3   2   6
   28      2    4   2   6
   29      2    4   2   5
   30      2    5   2   6
   31      2    7   4   9
   32      2    7   4   8
   33      2    8   4   9
   34      2   10   5  11
   35      2   10   5  12
   36      2   11   5  12
   37      2   13   6  14
   38      2   13   6  15
   39      2   14   6  15
   40      3    1   3   2   5
   41      3    1   3   2   4
   42      3    1   3   2   6
   43      3    3   2   4   8
   44      3    3   2   6  15
   45      3    3   2   6  14
   46      3    3   2   4   7
   47      3    3   2   5  10
   48      3    3   2   6  13
   49      3    3   2   5  11
   50      3    3   2   5  12
   51      3    3   2   4   9
   52      3    4   2   6  15
   53      3    4   2   6  14
   54      3    4   2   5  10
   55      3    4   2   6  13
   56      3    4   2   5  12
   57      3    4   2   5  11
   58      3    5   2   6  15
   59      3    5   2   6  14
   60      3    5   2   4   7
   61      3    5   2   6  13
   62      3    5   2   4   9
   63      3    5   2   4   8
   64      3    6   2   4   7
   65      3    6   2   5  10
   66      3    6   2   5  11
   67      3    6   2   5  12
   68      3    6   2   4   9
   69      3    6   2   4   8

          INDEP./SYM. INTERNAL COORDINATES
          --------------------------------
 CRD  1=   1.0000 (  1)
 CRD  2=   0.1037 ( 16) -0.1314 ( 20) -0.1030 ( 22)  0.1276 ( 23) -0.1118 ( 24)
          -0.2980 ( 26)  0.3211 ( 27) -0.4179 ( 28)  0.4503 ( 29) -0.1648 ( 40)
           0.1940 ( 41) -0.1390 ( 42)  0.1166 ( 46)  0.1123 ( 51) -0.1368 ( 53)
          -0.1230 ( 56)  0.1619 ( 58)  0.1009 ( 59)  0.1600 ( 61)  0.1524 ( 65)
           0.1639 ( 66) -0.1015 ( 69)
 CRD  3=  -0.3259 (  3)  0.1505 (  5)  0.1874 (  6)  0.2284 ( 18) -0.1450 ( 19)
          -0.1223 ( 21)  0.2242 ( 22) -0.2411 ( 28) -0.1937 ( 29)  0.4182 ( 30)
           0.2333 ( 40) -0.2514 ( 42)  0.1722 ( 44) -0.1598 ( 49) -0.1317 ( 59)
          -0.1003 ( 60) -0.1255 ( 61) -0.1041 ( 63)  0.1064 ( 64)  0.1329 ( 65)
           0.1393 ( 67)  0.1105 ( 68)  0.1026 ( 69)
 CRD  4=   0.3562 (  5) -0.3306 (  6)  0.1973 ( 19)  0.1515 ( 20) -0.2043 ( 21)
          -0.1716 ( 23) -0.2251 ( 26)  0.2426 ( 27)  0.1028 ( 28) -0.1108 ( 29)
           0.1070 ( 35) -0.1153 ( 37) -0.2297 ( 41)  0.2654 ( 43) -0.1141 ( 44)
          -0.1205 ( 45)  0.2041 ( 46) -0.1436 ( 49) -0.1413 ( 50)  0.2000 ( 51)
           0.1265 ( 54)  0.1156 ( 55) -0.1359 ( 60) -0.1400 ( 62) -0.1317 ( 64)
          -0.1358 ( 68)
 CRD  5=   0.3858 (  3)  0.4058 (  5)  0.4073 (  6)  0.2724 ( 16)  0.2718 ( 17)
           0.2724 ( 24) -0.1163 ( 32) -0.1163 ( 33) -0.1220 ( 34) -0.1212 ( 36)
          -0.1216 ( 38) -0.1208 ( 39)  0.1210 ( 54) -0.1214 ( 55)  0.1148 ( 59)
          -0.1199 ( 62)  0.1204 ( 64) -0.1148 ( 67)
 CRD  6=   0.1992 (  2)  0.3200 (  3)  0.3421 (  4)  0.2018 (  5)  0.1926 (  6)
          -0.2171 ( 16) -0.2265 ( 17)  0.1917 ( 18)  0.1794 ( 19)  0.2396 ( 20)
           0.1757 ( 21)  0.1871 ( 22)  0.2404 ( 23) -0.2178 ( 24)  0.1090 ( 25)
          -0.1903 ( 31) -0.1412 ( 35) -0.1447 ( 37)  0.1009 ( 52) -0.1423 ( 54)
           0.1438 ( 55) -0.1002 ( 57) -0.1068 ( 59)  0.1258 ( 62) -0.1285 ( 64)
           0.1080 ( 67)
 CRD  7=   0.3557 (  3) -0.1916 (  5) -0.2340 (  6) -0.1056 ( 14)  0.2989 ( 17)
           0.2880 ( 18) -0.4210 ( 19) -0.4024 ( 21)  0.2557 ( 22) -0.1575 ( 32)
          -0.1399 ( 33)  0.1831 ( 36)  0.1762 ( 39)
 CRD  8=   0.2830 (  5) -0.2626 (  6)  0.1066 (  8) -0.1057 (  9) -0.2938 ( 16)
           0.1524 ( 18) -0.1947 ( 19) -0.4016 ( 20)  0.2379 ( 21) -0.1987 ( 22)
           0.4047 ( 23)  0.3166 ( 24) -0.1316 ( 32)  0.1503 ( 33)  0.1969 ( 34)
          -0.1906 ( 38)
 CRD  9=   0.1721 (  2)  0.2568 (  4)  0.3848 ( 16) -0.3595 ( 17) -0.2043 ( 18)
          -0.1680 ( 19)  0.2001 ( 20) -0.1992 ( 21) -0.2328 ( 22)  0.1975 ( 23)
           0.3313 ( 24)  0.1081 ( 25) -0.1499 ( 31)  0.1830 ( 35)  0.1591 ( 37)
           0.1015 ( 52)  0.1348 ( 53) -0.1380 ( 56)
 CRD 10=  -0.1009 (  8)  0.1017 (  9)  0.3406 ( 18) -0.3886 ( 19)  0.3817 ( 20)
           0.3856 ( 21) -0.3412 ( 22) -0.3783 ( 23)  0.1350 ( 32) -0.1342 ( 33)
           0.1333 ( 34) -0.1222 ( 36) -0.1342 ( 38)  0.1222 ( 39)
 CRD 11=   0.1171 ( 11) -0.1118 ( 12) -0.1262 ( 13)  0.1083 ( 15)  0.4209 ( 16)
           0.3567 ( 18)  0.1038 ( 19) -0.2025 ( 20) -0.3644 ( 22)  0.1694 ( 23)
          -0.4535 ( 24)  0.1930 ( 35) -0.1431 ( 36) -0.2080 ( 37)  0.1404 ( 39)
 CRD 12=   0.3135 (  2)  0.4819 (  4)  0.1718 (  7)  0.4663 ( 17) -0.2023 ( 18)
           0.1401 ( 19) -0.2010 ( 20)  0.1418 ( 21) -0.1759 ( 22) -0.2255 ( 23)
           0.1427 ( 25)  0.1019 ( 30)  0.2100 ( 31) -0.1126 ( 32) -0.1224 ( 33)
 CRD 13=   0.1864 (  2) -0.1904 (  3)  0.3498 (  4)  0.1120 (  6) -0.1035 ( 10)
           0.1137 ( 11)  0.1007 ( 13)  0.1585 ( 16)  0.1087 ( 18) -0.1257 ( 19)
          -0.1045 ( 20) -0.1104 ( 21)  0.1071 ( 22)  0.1442 ( 24) -0.2100 ( 25)
           0.1558 ( 26)  0.1295 ( 27)  0.1325 ( 28)  0.1014 ( 29) -0.2999 ( 30)
          -0.1510 ( 34) -0.1426 ( 38)  0.1051 ( 42) -0.1529 ( 52) -0.1570 ( 53)
           0.1211 ( 54) -0.1265 ( 55)  0.1582 ( 56)  0.1501 ( 57) -0.1551 ( 58)
          -0.1592 ( 59)  0.1444 ( 60) -0.1287 ( 61)  0.1181 ( 63)  0.1069 ( 65)
           0.1358 ( 66)  0.1440 ( 67) -0.1238 ( 68)
 CRD 14=  -0.2021 ( 43) -0.2127 ( 44) -0.1834 ( 45) -0.1739 ( 46) -0.1852 ( 47)
          -0.1845 ( 48) -0.2135 ( 49) -0.1842 ( 50) -0.1738 ( 51) -0.2116 ( 52)
          -0.1824 ( 53) -0.1841 ( 54) -0.1835 ( 55) -0.1831 ( 56) -0.2123 ( 57)
          -0.2124 ( 58) -0.1831 ( 59) -0.1754 ( 60) -0.1842 ( 61) -0.1753 ( 62)
          -0.2036 ( 63) -0.1753 ( 64) -0.1848 ( 65) -0.2131 ( 66) -0.1838 ( 67)
          -0.1752 ( 68) -0.2035 ( 69)
 CRD 15=  -0.1903 ( 10) -0.1305 ( 12)  0.1987 ( 14)  0.1470 ( 15) -0.1137 ( 41)
           0.2947 ( 43) -0.1218 ( 44)  0.2768 ( 46) -0.1678 ( 47) -0.1385 ( 48)
          -0.1541 ( 49) -0.1312 ( 50)  0.2796 ( 51) -0.1228 ( 54) -0.1090 ( 57)
          -0.1054 ( 58)  0.2137 ( 60) -0.1221 ( 61)  0.2165 ( 62)  0.2316 ( 63)
           0.2153 ( 64) -0.1437 ( 65) -0.1299 ( 66) -0.1070 ( 67)  0.2181 ( 68)
           0.2332 ( 69)
 CRD 16=   0.4245 (  7)  0.3549 (  8)  0.3485 (  9) -0.2454 ( 10) -0.2402 ( 11)
          -0.1619 ( 12) -0.1928 ( 13) -0.2091 ( 14) -0.1192 ( 15) -0.1293 ( 17)
           0.1152 ( 18) -0.1748 ( 20)  0.1318 ( 22) -0.1696 ( 23)  0.2014 ( 31)
           0.1375 ( 32)  0.1403 ( 33) -0.1134 ( 35)
 CRD 17=   0.2500 ( 10)  0.3595 ( 11)  0.3142 ( 12) -0.3871 ( 13) -0.2778 ( 14)
          -0.3295 ( 15) -0.1043 ( 16)  0.1344 ( 18)  0.1699 ( 19) -0.1634 ( 21)
          -0.1192 ( 22)  0.1123 ( 24)  0.1003 ( 34)  0.1669 ( 35)  0.1241 ( 36)
          -0.1797 ( 37) -0.1112 ( 38) -0.1303 ( 39)  0.1080 ( 60)  0.1086 ( 62)
           0.1047 ( 63)  0.1067 ( 64)  0.1073 ( 68)  0.1034 ( 69)
 CRD 18=  -0.1035 (  3) -0.2714 (  7) -0.3144 (  8) -0.3147 (  9) -0.2983 ( 10)
          -0.2626 ( 11) -0.2954 ( 12) -0.2632 ( 13) -0.2997 ( 14) -0.2966 ( 15)
           0.1108 ( 16)  0.1169 ( 17)  0.1001 ( 18)  0.1002 ( 19)  0.1045 ( 20)
           0.1045 ( 23)  0.1112 ( 24) -0.1112 ( 31) -0.1093 ( 32) -0.1094 ( 33)
          -0.1036 ( 34) -0.1067 ( 35) -0.1039 ( 36) -0.1070 ( 37) -0.1040 ( 38)
          -0.1043 ( 39)
 CRD 19=  -0.1969 (  3)  0.1024 (  5)  0.1256 (  6) -0.2421 (  8) -0.2628 (  9)
           0.2728 ( 12)  0.2550 ( 15) -0.1210 ( 25)  0.1002 ( 28) -0.2086 ( 30)
           0.2023 ( 44)  0.1875 ( 45) -0.1935 ( 47)  0.2061 ( 48) -0.1877 ( 49)
          -0.1718 ( 50)  0.1519 ( 52)  0.1372 ( 53) -0.1403 ( 54)  0.1557 ( 55)
          -0.1186 ( 56) -0.1346 ( 57)  0.1674 ( 58)  0.1526 ( 59)  0.1712 ( 61)
          -0.1675 ( 65) -0.1617 ( 66) -0.1458 ( 67)
 CRD 20=   0.1374 (  8) -0.1672 (  9)  0.4104 ( 11) -0.3036 ( 12) -0.4424 ( 13)
           0.1204 ( 14)  0.3003 ( 15) -0.2063 ( 35)  0.1671 ( 36)  0.2224 ( 37)
          -0.1650 ( 39) -0.1291 ( 45)  0.1021 ( 47)  0.1123 ( 48) -0.1218 ( 50)
          -0.1325 ( 53)  0.1089 ( 55) -0.1242 ( 56) -0.1214 ( 59)  0.1200 ( 61)
           0.1099 ( 65) -0.1139 ( 67)
 CRD 21=   0.3960 (  7) -0.1813 (  8) -0.1513 (  9)  0.3292 ( 10) -0.3208 ( 11)
          -0.2696 ( 13)  0.3222 ( 14) -0.2075 ( 31)  0.1075 ( 33) -0.1755 ( 34)
           0.1617 ( 35)  0.1354 ( 37) -0.1701 ( 38) -0.1024 ( 44)  0.1064 ( 46)
          -0.1080 ( 51) -0.1044 ( 52) -0.1054 ( 58)  0.1081 ( 60) -0.1064 ( 62)
           0.1051 ( 64) -0.1093 ( 68)
 CRD 22=  -0.4474 (  7)  0.2009 (  8)  0.1949 (  9)  0.1166 ( 10) -0.3383 ( 11)
           0.1956 ( 12) -0.3455 ( 13)  0.1165 ( 14)  0.2011 ( 15)  0.2270 ( 31)
          -0.1117 ( 32) -0.1146 ( 33)  0.1696 ( 35) -0.1061 ( 36)  0.1735 ( 37)
          -0.1092 ( 39) -0.1214 ( 46)  0.1216 ( 51) -0.1059 ( 54)  0.1077 ( 55)
          -0.1117 ( 59) -0.1055 ( 60)  0.1375 ( 62) -0.1372 ( 64)  0.1096 ( 67)
           0.1058 ( 68)
 CRD 23=  -0.3440 (  8)  0.3446 (  9)  0.3070 ( 10) -0.3013 ( 12) -0.3103 ( 14)
           0.3040 ( 15) -0.1840 ( 32)  0.1834 ( 33) -0.1675 ( 34)  0.1617 ( 36)
           0.1693 ( 38) -0.1629 ( 39)  0.1356 ( 43)  0.1184 ( 44)  0.1169 ( 49)
           0.1183 ( 52)  0.1169 ( 57)  0.1185 ( 58)  0.1355 ( 63)  0.1171 ( 66)
           0.1355 ( 69)
 CRD 24=   0.3989 (  8) -0.3869 (  9)  0.3141 ( 10) -0.1502 ( 11) -0.1597 ( 12)
           0.1618 ( 13) -0.2748 ( 14)  0.1084 ( 15)  0.2178 ( 32) -0.2252 ( 33)
          -0.1819 ( 34)  0.1600 ( 38) -0.1274 ( 43)  0.1058 ( 46) -0.1141 ( 47)
          -0.1054 ( 48)  0.1135 ( 51) -0.1259 ( 54) -0.1160 ( 55)  0.1192 ( 60)
          -0.1062 ( 61)  0.1268 ( 62) -0.1140 ( 63)  0.1185 ( 64) -0.1168 ( 65)
           0.1261 ( 68) -0.1148 ( 69)
 CRD 25=   0.2498 (  7) -0.1032 (  9) -0.2517 ( 10) -0.1363 ( 11)  0.3319 ( 12)
          -0.1085 ( 13) -0.2830 ( 14)  0.3459 ( 15) -0.1625 ( 31)  0.1556 ( 34)
          -0.2203 ( 36)  0.1775 ( 38) -0.2276 ( 39) -0.1542 ( 45)  0.1537 ( 50)
          -0.1633 ( 53) -0.1021 ( 55)  0.1600 ( 56) -0.1707 ( 59) -0.1095 ( 61)
           0.1092 ( 64)  0.1712 ( 67)
 CRD 26=  -0.2295 (  5)  0.2130 (  6)  0.1671 (  8) -0.1359 (  9)  0.2781 ( 10)
           0.1040 ( 11)  0.1243 ( 12) -0.1121 ( 13) -0.2772 ( 14) -0.1563 ( 15)
          -0.2119 ( 19) -0.1210 ( 20)  0.2158 ( 21)  0.1430 ( 23)  0.1057 ( 27)
           0.1562 ( 28) -0.1683 ( 29) -0.1333 ( 32)  0.1188 ( 33) -0.1848 ( 35)
          -0.1508 ( 36)  0.1991 ( 37)  0.1449 ( 39) -0.2657 ( 41)  0.1635 ( 43)
           0.1195 ( 54)  0.1104 ( 55) -0.1268 ( 60) -0.1292 ( 62) -0.1204 ( 64)
          -0.1228 ( 68)
 CRD 27=   0.7196 (  2) -0.2134 (  7) -0.1457 ( 11) -0.1505 ( 13) -0.1699 ( 17)
           0.1479 ( 32)  0.1522 ( 33) -0.1022 ( 35)  0.1027 ( 39)  0.1082 ( 54)
          -0.1048 ( 55)  0.1632 ( 59) -0.1188 ( 62)  0.1146 ( 64) -0.1624 ( 67)
 CRD 28=   0.2090 (  2) -0.1042 (  3)  0.2085 (  8)  0.2194 (  9) -0.1379 ( 11)
          -0.1953 ( 12) -0.1241 ( 13) -0.1763 ( 15) -0.1563 ( 16)  0.1553 ( 17)
          -0.1452 ( 18)  0.1667 ( 20) -0.1612 ( 22)  0.1590 ( 23) -0.1338 ( 24)
          -0.2827 ( 25)  0.1271 ( 26) -0.2414 ( 31) -0.1155 ( 32) -0.1247 ( 33)
           0.1931 ( 34)  0.1165 ( 35)  0.1794 ( 38)  0.2288 ( 44)  0.1901 ( 45)
          -0.1608 ( 47)  0.1717 ( 48) -0.2123 ( 49) -0.1750 ( 50)
 CRD 29=  -0.3639 (  2)  0.2643 (  3)  0.3358 (  4)  0.2208 (  5)  0.2174 (  6)
          -0.1900 (  7) -0.1345 (  8) -0.1348 (  9) -0.1093 ( 10) -0.1696 ( 11)
          -0.1050 ( 12) -0.1711 ( 13) -0.1115 ( 14) -0.1068 ( 15) -0.1470 ( 16)
          -0.1763 ( 17) -0.1294 ( 18) -0.1307 ( 19) -0.1537 ( 20) -0.1288 ( 21)
          -0.1276 ( 22) -0.1536 ( 23) -0.1491 ( 24)  0.1372 ( 31)  0.1770 ( 32)
           0.1773 ( 33)  0.1501 ( 34)  0.1068 ( 35)  0.1539 ( 36)  0.1090 ( 37)
           0.1517 ( 38)  0.1559 ( 39)
 CRD 30=   0.4859 (  5) -0.4508 (  6)  0.1181 (  9)  0.1604 ( 11)  0.1721 ( 12)
          -0.1728 ( 13) -0.1109 ( 14) -0.1716 ( 15)  0.1579 ( 16) -0.1805 ( 18)
          -0.1534 ( 19)  0.1390 ( 21)  0.1708 ( 22) -0.1701 ( 24) -0.1945 ( 34)
          -0.1468 ( 35) -0.1339 ( 36)  0.1583 ( 37)  0.1991 ( 38)  0.1548 ( 39)
           0.1232 ( 41)
 CRD 31=  -0.3012 (  2) -0.1797 (  3)  0.4977 (  4) -0.2256 (  5) -0.2294 (  6)
          -0.1348 (  7)  0.1380 (  8)  0.1388 (  9)  0.1565 ( 10) -0.1169 ( 11)
           0.1462 ( 12) -0.1183 ( 13)  0.1559 ( 14)  0.1448 ( 15) -0.2021 ( 31)
          -0.2171 ( 35) -0.2159 ( 37)  0.1339 ( 54) -0.1344 ( 55)  0.1273 ( 59)
          -0.1330 ( 62)  0.1335 ( 64) -0.1274 ( 67)
 CRD 32=   0.4808 (  3) -0.2048 (  5) -0.2580 (  6) -0.1705 (  7)  0.1942 ( 10)
           0.1047 ( 11) -0.1237 ( 12)  0.1985 ( 14) -0.1441 ( 15) -0.1325 ( 20)
          -0.1338 ( 23) -0.1815 ( 25)  0.1038 ( 26)  0.1542 ( 32)  0.1351 ( 33)
          -0.2066 ( 36) -0.1998 ( 39)  0.2438 ( 44) -0.1120 ( 47)  0.1131 ( 48)
          -0.2262 ( 49)
 CRD 33=  -0.1815 (  8)  0.1816 (  9)  0.2559 ( 10) -0.2551 ( 12) -0.2507 ( 14)
           0.2497 ( 15)  0.1048 ( 19) -0.1062 ( 21)  0.1392 ( 32) -0.1384 ( 33)
           0.1996 ( 34) -0.1894 ( 36) -0.1960 ( 38)  0.1850 ( 39) -0.1018 ( 43)
          -0.1713 ( 44)  0.1089 ( 45)  0.1082 ( 46)  0.1165 ( 47)  0.1164 ( 48)
          -0.1766 ( 49)  0.1096 ( 50)  0.1077 ( 51) -0.1710 ( 52)  0.1092 ( 53)
           0.1180 ( 54)  0.1167 ( 55)  0.1111 ( 56) -0.1752 ( 57) -0.1643 ( 58)
           0.1159 ( 59)  0.1002 ( 60)  0.1234 ( 61) -0.1098 ( 63)  0.1242 ( 65)
          -0.1690 ( 66)  0.1173 ( 67) -0.1103 ( 69)
 CRD 34=   0.2185 (  8) -0.2336 (  9)  0.2244 ( 11) -0.1933 ( 12) -0.2419 ( 13)
           0.1776 ( 15)  0.1110 ( 20) -0.1042 ( 23) -0.1207 ( 28)  0.1301 ( 29)
          -0.1782 ( 32)  0.1633 ( 33)  0.1582 ( 35) -0.1686 ( 36) -0.1705 ( 37)
           0.1585 ( 39)  0.1126 ( 41)  0.1420 ( 43)  0.1874 ( 45) -0.1323 ( 46)
          -0.1053 ( 48)  0.1895 ( 50) -0.1112 ( 51)  0.1513 ( 53) -0.1161 ( 54)
          -0.1415 ( 55)  0.1554 ( 56)  0.2200 ( 59) -0.1258 ( 60) -0.1046 ( 62)
           0.1485 ( 63) -0.1308 ( 64)  0.2191 ( 67) -0.1096 ( 68)  0.1436 ( 69)
 CRD 35=  -0.3214 (  7)  0.1498 (  8)  0.1310 (  9) -0.1991 ( 10)  0.1791 ( 11)
           0.1429 ( 13) -0.1927 ( 14)  0.1134 ( 17)  0.1098 ( 30) -0.2282 ( 31)
           0.1278 ( 32)  0.1421 ( 33) -0.1663 ( 34)  0.1270 ( 35)  0.1013 ( 37)
          -0.1583 ( 38)  0.1890 ( 46) -0.1945 ( 47)  0.1792 ( 48) -0.2024 ( 51)
          -0.2126 ( 54)  0.1941 ( 55)  0.1600 ( 60)  0.1681 ( 61) -0.2314 ( 62)
           0.2178 ( 64) -0.1801 ( 65) -0.1737 ( 68)
 CRD 36=  -0.1123 (  5)  0.1043 (  6) -0.2321 (  8)  0.2166 (  9) -0.1854 ( 10)
           0.1835 ( 11) -0.1977 ( 13)  0.1708 ( 14) -0.1202 ( 20)  0.1242 ( 23)
           0.1014 ( 24)  0.1625 ( 32) -0.1728 ( 33) -0.1306 ( 34)  0.1568 ( 35)
          -0.1690 ( 37)  0.1190 ( 38) -0.1813 ( 41) -0.1493 ( 43)  0.1091 ( 46)
          -0.1689 ( 47) -0.1664 ( 48)  0.1280 ( 51)  0.1252 ( 52)  0.1781 ( 53)
           0.1691 ( 56)  0.1526 ( 57)  0.1269 ( 59) -0.1354 ( 61) -0.2787 ( 63)
          -0.1217 ( 65)  0.1051 ( 66)  0.1217 ( 67) -0.2750 ( 69)
 CRD 37=   0.2530 (  3) -0.1116 (  5) -0.1399 (  6)  0.1180 (  7) -0.1180 ( 10)
           0.2124 ( 12) -0.1404 ( 14)  0.2157 ( 15) -0.1359 ( 18)  0.1358 ( 19)
           0.1259 ( 21) -0.1263 ( 22) -0.1868 ( 25)  0.1046 ( 26)  0.1116 ( 30)
           0.1359 ( 31) -0.1037 ( 34)  0.1386 ( 36) -0.1167 ( 38)  0.1444 ( 39)
           0.1083 ( 40) -0.1167 ( 42)  0.2403 ( 45) -0.1044 ( 46) -0.1373 ( 47)
           0.1618 ( 48) -0.2358 ( 50) -0.2372 ( 52)  0.2158 ( 57) -0.2647 ( 58)
          -0.1174 ( 60)  0.2499 ( 66)  0.1203 ( 68)
 CRD 38=   0.2533 (  4)  0.1603 (  7)  0.1606 ( 11)  0.1605 ( 13) -0.1237 ( 16)
          -0.1232 ( 17) -0.1236 ( 24) -0.1064 ( 25) -0.1056 ( 26) -0.1056 ( 27)
           0.1081 ( 31)  0.1082 ( 35)  0.1082 ( 37) -0.1197 ( 45) -0.1194 ( 46)
          -0.1196 ( 47)  0.1195 ( 48)  0.1197 ( 50)  0.1194 ( 51) -0.1423 ( 52)
          -0.2620 ( 53)  0.2620 ( 56)  0.1423 ( 57)  0.1421 ( 58) -0.2612 ( 60)
           0.2617 ( 61) -0.1418 ( 63) -0.2618 ( 65) -0.1422 ( 66)  0.2612 ( 68)
           0.1418 ( 69)
 CRD 39=  -0.1072 (  5)  0.5799 ( 40)  0.4769 ( 41)  0.5725 ( 42)  0.1109 ( 46)
           0.1117 ( 51)

 THE DETERMINANT OF THE G MATRIX IS 10**(   -18)


                     --------------------
                     INTERNAL COORDINATES
                     --------------------

                 - - ATOMS - -         COORDINATE      COORDINATE
 NO.   TYPE    I  J  K  L  M  N        (BOHR,RAD)       (ANG,DEG)
 ----------------------------------------------------------------
   1 BEND      1  3  2                  2.8623400     164.0000000
   2 STRETCH   1  3                     3.9655853       2.0984975
   3 STRETCH   2  4                     3.3484320       1.7719140
   4 STRETCH   2  3                     3.2154201       1.7015272
   5 STRETCH   2  6                     3.3484566       1.7719271
   6 STRETCH   2  5                     3.3484461       1.7719215
   7 STRETCH   4  8                     2.0698887       1.0953380
   8 STRETCH   4  7                     2.0585963       1.0893623
   9 STRETCH   4  9                     2.0585769       1.0893521
  10 STRETCH   5 12                     2.0585887       1.0893583
  11 STRETCH   5 11                     2.0699049       1.0953466
  12 STRETCH   5 10                     2.0585850       1.0893563
  13 STRETCH   6 15                     2.0699113       1.0953500
  14 STRETCH   6 14                     2.0585734       1.0893502
  15 STRETCH   6 13                     2.0585905       1.0893593
  16 BEND      2  5 11                  1.8617257     106.6690242
  17 BEND      2  4  8                  1.8617503     106.6704366
  18 BEND      2  6 13                  1.9422064     111.2802298
  19 BEND      2  6 14                  1.9421731     111.2783195
  20 BEND      2  4  9                  1.9421657     111.2778965
  21 BEND      2  5 12                  1.9421929     111.2794586
  22 BEND      2  5 10                  1.9422210     111.2810643
  23 BEND      2  4  7                  1.9421835     111.2789152
  24 BEND      2  6 15                  1.8617547     106.6706875
  25 BEND      3  2  4                  1.8566295     106.3770343
  26 BEND      3  2  5                  1.8564257     106.3653596
  27 BEND      3  2  6                  1.8563668     106.3619840
  28 BEND      4  2  6                  1.9615455     112.3882757
  29 BEND      4  2  5                  1.9615420     112.3880789
  30 BEND      5  2  6                  1.9615340     112.3876199
  31 BEND      7  4  9                  1.9411093     111.2173696
  32 BEND      7  4  8                  1.8865465     108.0911531
  33 BEND      8  4  9                  1.8865760     108.0928403
  34 BEND     10  5 11                  1.8865249     108.0899157
  35 BEND     10  5 12                  1.9411462     111.2194854
  36 BEND     11  5 12                  1.8865127     108.0892176
  37 BEND     13  6 14                  1.9411688     111.2207796
  38 BEND     13  6 15                  1.8864953     108.0882171
  39 BEND     14  6 15                  1.8865259     108.0899695
  40 TORSION   1  3  2  5               0.9826059      56.2991703
  41 TORSION   1  3  2  4               3.0770573     176.3023961
  42 TORSION   1  3  2  6              -1.1117026     -63.6958676
  43 TORSION   3  2  4  8               3.1415018     179.9947971
  44 TORSION   3  2  6 15               3.1414176     179.9899701
  45 TORSION   3  2  6 14              -1.0879358     -62.3341312
  46 TORSION   3  2  4  7              -1.0878237     -62.3277076
  47 TORSION   3  2  5 10              -1.0876530     -62.3179262
  48 TORSION   3  2  6 13               1.0876044      62.3151424
  49 TORSION   3  2  5 11              -3.1414924    -179.9942563
  50 TORSION   3  2  5 12               1.0878833      62.3311241
  51 TORSION   3  2  4  9               1.0876163      62.3158257
  52 TORSION   4  2  6 15              -1.1167595     -63.9856053
  53 TORSION   4  2  6 14               0.9370724      53.6902935
  54 TORSION   4  2  5 10              -3.1126949    -178.3442782
  55 TORSION   4  2  6 13               3.1126126     178.3395670
  56 TORSION   4  2  5 12              -0.9371585     -53.6952280
  57 TORSION   4  2  5 11               1.1166510      63.9793917
  58 TORSION   5  2  6 15               1.1166606      63.9799412
  59 TORSION   5  2  6 14              -3.1126928    -178.3441601
  60 TORSION   5  2  4  7               0.9370955      53.6916197
  61 TORSION   5  2  6 13              -0.9371526     -53.6948865
  62 TORSION   5  2  4  9               3.1125356     178.3351530
  63 TORSION   5  2  4  8              -1.1167642     -63.9858756
  64 TORSION   6  2  4  7              -3.1126739    -178.3430761
  65 TORSION   6  2  5 10               0.9370685      53.6900713
  66 TORSION   6  2  5 11              -1.1167709     -63.9862587
  67 TORSION   6  2  5 12               3.1126049     178.3391216
  68 TORSION   6  2  4  9              -0.9372338     -53.6995428
  69 TORSION   6  2  4  8               1.1166517      63.9794286

     ------------------------------------------
     THE POINT GROUP IS C1 , NAXIS= 0, ORDER= 1
     ------------------------------------------

 -- VARIATIONAL SPACE WILL BE RESTRICTED TO PURE SPHERICAL HARMONICS ONLY --
 AFTER EXCLUDING CONTAMINANT COMBINATIONS FROM THE CARTESIAN GAUSSIAN BASIS
 SET, THE NUMBER OF SPHERICAL HARMONICS KEPT IN THE VARIATION SPACE IS  316

     DIMENSIONS OF THE SYMMETRY SUBSPACES ARE
 A   =  316

 ..... DONE SETTING UP THE RUN .....
 CPU     0: STEP CPU TIME=     0.09 TOTAL CPU TIME=        0.1 (    0.0 MIN)
 TOTAL WALL CLOCK TIME=        0.2 SECONDS, CPU UTILIZATION IS  50.00%


          -----------------------------
          STATIONARY POINT LOCATION RUN
          -----------------------------


           ** GEOMETRY CONSTRAINTS ARE BEING APPLIED. **

          TRANSFORMING DISPLACEMENT FROM INTERNALS TO CARTESIANS
          THE ROOT MEAN SQUARE ERROR IN ITERATION   1 IS   0.00000000
 WARNING! THE RADIUS IN CARTESIANS IS    0.00000
 OBTAINING INITIAL HESSIAN, HESS=GUESS   
 DIAGONAL GUESS HESSIAN IN INTERNAL COORDS IS
     1  0.3179     2  0.5872     3  0.4357     4  0.4035     5  0.4357
     6  0.4357     7  0.3428     8  0.3468     9  0.3468    10  0.3468
    11  0.3428    12  0.3468    13  0.3428    14  0.3468    15  0.3468
    16  0.2410    17  0.2410    18  0.2414    19  0.2414    20  0.2414
    21  0.2414    22  0.2414    23  0.2414    24  0.2410    25  0.2834
    26  0.2834    27  0.2834    28  0.2919    29  0.2919    30  0.2919
    31  0.2035    32  0.2032    33  0.2032    34  0.2032    35  0.2035
    36  0.2032    37  0.2035    38  0.2032    39  0.2032    40  0.2500
    41  0.2500    42  0.2500    43  0.2500    44  0.2500    45  0.2500
    46  0.2500    47  0.2500    48  0.2500    49  0.2500    50  0.2500
    51  0.2500    52  0.2500    53  0.2500    54  0.2500    55  0.2500
    56  0.2500    57  0.2500    58  0.2500    59  0.2500    60  0.2500
    61  0.2500    62  0.2500    63  0.2500    64  0.2500    65  0.2500
    66  0.2500    67  0.2500    68  0.2500    69  0.2500
 TRANSFORMING HESSIAN TO SYMMETRY COORDINATES

          PARAMETERS CONTROLLING GEOMETRY SEARCH ARE
          METHOD =QA                  UPHESS =BFGS    
          NNEG   =         0          NFRZ   =         0
          NSTEP  =        50          IFOLOW =         1
          HESS   =GUESS               RESTAR =         F
          IHREP  =         0          HSSEND =         F
          NPRT   =         0          NPUN   =         0
          OPTTOL = 1.000E-04          RMIN   = 1.500E-03
          RMAX   = 1.000E-01          RLIM   = 7.000E-02
          DXMAX  = 3.000E-01          PURIFY =         F
          MOVIE  =         F          TRUPD  =         T
          TRMAX  = 5.000E-01          TRMIN  = 5.000E-02
          ITBMAT =         5          STPT   =         F
          STSTEP = 1.000E-02          PROJCT=          T

 BEGINNING GEOMETRY SEARCH POINT NSERCH=   0 ...

 COORDINATES OF ALL ATOMS ARE (ANGS)
   ATOM   CHARGE       X              Y              Z
 ------------------------------------------------------------
 LA         57.0   0.3143500000   0.8802800000  -4.0288700000
 P          15.0  -0.0139059728   0.2856083695  -0.3272272294
 O           8.0  -0.1001300000   0.6702700000  -1.9824600000
 C           6.0  -1.4550763221   0.9902945569   0.4251853940
 C           6.0   1.4857594889   1.0110521326   0.2764619507
 C           6.0   0.0037031455  -1.4833436217  -0.2261122207
 H           1.0  -1.4617489602   2.0752297864   0.3273014263
 H           1.0  -1.4044578094   0.7452933890   1.4915706470
 H           1.0  -2.3666432172   0.5523092327   0.0203365377
 H           1.0   2.3579573787   0.5855750740  -0.2184494646
 H           1.0   1.5463513081   0.7662064053   1.3423716032
 H           1.0   1.4672841865   2.0958955684   0.1791228572
 H           1.0   0.8818091945  -1.8988071336  -0.7190863083
 H           1.0  -0.9137538840  -1.9114493456  -0.6282092383
 H           1.0   0.0593654141  -1.7367114766   0.8380766548


                     --------------------
                     INTERNAL COORDINATES
                     --------------------

                 - - ATOMS - -         COORDINATE      COORDINATE
 NO.   TYPE    I  J  K  L  M  N        (BOHR,RAD)       (ANG,DEG)
 ----------------------------------------------------------------
   1 BEND      1  3  2                  2.8623400     164.0000000
   2 STRETCH   1  3                     3.9655853       2.0984975
   3 STRETCH   2  4                     3.3484320       1.7719140
   4 STRETCH   2  3                     3.2154201       1.7015272
   5 STRETCH   2  6                     3.3484566       1.7719271
   6 STRETCH   2  5                     3.3484461       1.7719215
   7 STRETCH   4  8                     2.0698887       1.0953380
   8 STRETCH   4  7                     2.0585963       1.0893623
   9 STRETCH   4  9                     2.0585769       1.0893521
  10 STRETCH   5 12                     2.0585887       1.0893583
  11 STRETCH   5 11                     2.0699049       1.0953466
  12 STRETCH   5 10                     2.0585850       1.0893563
  13 STRETCH   6 15                     2.0699113       1.0953500
  14 STRETCH   6 14                     2.0585734       1.0893502
  15 STRETCH   6 13                     2.0585905       1.0893593
  16 BEND      2  5 11                  1.8617257     106.6690242
  17 BEND      2  4  8                  1.8617503     106.6704366
  18 BEND      2  6 13                  1.9422064     111.2802298
  19 BEND      2  6 14                  1.9421731     111.2783195
  20 BEND      2  4  9                  1.9421657     111.2778965
  21 BEND      2  5 12                  1.9421929     111.2794586
  22 BEND      2  5 10                  1.9422210     111.2810643
  23 BEND      2  4  7                  1.9421835     111.2789152
  24 BEND      2  6 15                  1.8617547     106.6706875
  25 BEND      3  2  4                  1.8566295     106.3770343
  26 BEND      3  2  5                  1.8564257     106.3653596
  27 BEND      3  2  6                  1.8563668     106.3619840
  28 BEND      4  2  6                  1.9615455     112.3882757
  29 BEND      4  2  5                  1.9615420     112.3880789
  30 BEND      5  2  6                  1.9615340     112.3876199
  31 BEND      7  4  9                  1.9411093     111.2173696
  32 BEND      7  4  8                  1.8865465     108.0911531
  33 BEND      8  4  9                  1.8865760     108.0928403
  34 BEND     10  5 11                  1.8865249     108.0899157
  35 BEND     10  5 12                  1.9411462     111.2194854
  36 BEND     11  5 12                  1.8865127     108.0892176
  37 BEND     13  6 14                  1.9411688     111.2207796
  38 BEND     13  6 15                  1.8864953     108.0882171
  39 BEND     14  6 15                  1.8865259     108.0899695
  40 TORSION   1  3  2  5               0.9826059      56.2991703
  41 TORSION   1  3  2  4               3.0770573     176.3023961
  42 TORSION   1  3  2  6              -1.1117026     -63.6958676
  43 TORSION   3  2  4  8               3.1415018     179.9947971
  44 TORSION   3  2  6 15               3.1414176     179.9899701
  45 TORSION   3  2  6 14              -1.0879358     -62.3341312
  46 TORSION   3  2  4  7              -1.0878237     -62.3277076
  47 TORSION   3  2  5 10              -1.0876530     -62.3179262
  48 TORSION   3  2  6 13               1.0876044      62.3151424
  49 TORSION   3  2  5 11              -3.1414924    -179.9942563
  50 TORSION   3  2  5 12               1.0878833      62.3311241
  51 TORSION   3  2  4  9               1.0876163      62.3158257
  52 TORSION   4  2  6 15              -1.1167595     -63.9856053
  53 TORSION   4  2  6 14               0.9370724      53.6902935
  54 TORSION   4  2  5 10              -3.1126949    -178.3442782
  55 TORSION   4  2  6 13               3.1126126     178.3395670
  56 TORSION   4  2  5 12              -0.9371585     -53.6952280
  57 TORSION   4  2  5 11               1.1166510      63.9793917
  58 TORSION   5  2  6 15               1.1166606      63.9799412
  59 TORSION   5  2  6 14              -3.1126928    -178.3441601
  60 TORSION   5  2  4  7               0.9370955      53.6916197
  61 TORSION   5  2  6 13              -0.9371526     -53.6948865
  62 TORSION   5  2  4  9               3.1125356     178.3351530
  63 TORSION   5  2  4  8              -1.1167642     -63.9858756
  64 TORSION   6  2  4  7              -3.1126739    -178.3430761
  65 TORSION   6  2  5 10               0.9370685      53.6900713
  66 TORSION   6  2  5 11              -1.1167709     -63.9862587
  67 TORSION   6  2  5 12               3.1126049     178.3391216
  68 TORSION   6  2  4  9              -0.9372338     -53.6995428
  69 TORSION   6  2  4  8               1.1166517      63.9794286

          ********************
          1 ELECTRON INTEGRALS
          ********************
 TIME TO DO ORDINARY INTEGRALS=      0.02
 TIME TO DO      ECP INTEGRALS=      0.05
 ...... END OF ONE-ELECTRON INTEGRALS ......
 CPU     0: STEP CPU TIME=     0.08 TOTAL CPU TIME=        0.2 (    0.0 MIN)
 TOTAL WALL CLOCK TIME=        0.3 SECONDS, CPU UTILIZATION IS  53.12%

          -------------
          GUESS OPTIONS
          -------------
          GUESS =HUCKEL            NORB  =       0          NORDER=       0
          MIX   =       F          PRTMO =       F          PUNMO =       F
          TOLZ  = 1.0E-08          TOLE  = 1.0E-05
          SYMDEN=       F          PURIFY=       F

 INITIAL GUESS ORBITALS GENERATED BY HUCKEL   ROUTINE.
 HUCKEL GUESS REQUIRES    916545 WORDS.

 STATISTICS FOR GENERATION OF SYMMETRY ORBITAL -Q- MATRIX
 NUMBER OF CARTESIAN ATOMIC ORBITALS=        354
 NUMBER OF SPHERICAL CONTAMINANTS DROPPED=    38
 NUMBER OF LINEARLY DEPENDENT MOS DROPPED=     0
 TOTAL NUMBER OF MOS IN VARIATION SPACE=     316

 SYMMETRIES FOR INITIAL GUESS ORBITALS FOLLOW.   BOTH SET(S).
    29 ORBITALS ARE OCCUPIED (   13 CORE ORBITALS).
    14=A       15=A       16=A       17=A       18=A       19=A       20=A   
    21=A       22=A       23=A       24=A       25=A       26=A       27=A   
    28=A       29=A       30=A       31=A       32=A       33=A       34=A   
    35=A       36=A       37=A       38=A       39=A   
 ...... END OF INITIAL ORBITAL SELECTION ......
 CPU     0: STEP CPU TIME=     0.25 TOTAL CPU TIME=        0.4 (    0.0 MIN)
 TOTAL WALL CLOCK TIME=        0.8 SECONDS, CPU UTILIZATION IS  51.85%

                    ----------------------
                    AO INTEGRAL TECHNOLOGY
                    ----------------------
     S,P,L SHELL ROTATED AXIS INTEGRALS, REPROGRAMMED BY
        KAZUYA ISHIMURA (IMS) AND JOSE SIERRA (SYNSTAR).
     S,P,D,L SHELL ROTATED AXIS INTEGRALS PROGRAMMED BY
        KAZUYA ISHIMURA (INSTITUTE FOR MOLECULAR SCIENCE).
     S,P,D,F,G SHELL TO TOTAL QUARTET ANGULAR MOMENTUM SUM 5,
        ERIC PROGRAM BY GRAHAM FLETCHER (ELORET AND NASA ADVANCED
        SUPERCOMPUTING DIVISION, AMES RESEARCH CENTER).
     S,P,D,F,G,L SHELL GENERAL RYS QUADRATURE PROGRAMMED BY
        MICHEL DUPUIS (PACIFIC NORTHWEST NATIONAL LABORATORY).

          --------------------
          2 ELECTRON INTEGRALS
          --------------------

 DIRECT SCF METHOD SKIPS INTEGRAL STORAGE ON DISK.
 DIRECT TRANSFORMATION SKIPS AO INTEGRAL STORAGE ON DISK.
  ...... END OF TWO-ELECTRON INTEGRALS .....
 CPU     0: STEP CPU TIME=     0.01 TOTAL CPU TIME=        0.4 (    0.0 MIN)
 TOTAL WALL CLOCK TIME=        0.8 SECONDS, CPU UTILIZATION IS  52.44%

          --------------------------
                 RHF SCF CALCULATION
          --------------------------

     NUCLEAR ENERGY =       335.4746960318
     MAXIT =  200     NPUNCH=    2
     EXTRAP=T  DAMP=F  SHIFT=F  RSTRCT=F  DIIS=F  DEM=F  SOSCF=T
     DENSITY MATRIX CONV=  2.00E-06
     SOSCF WILL OPTIMIZE    8323 ORBITAL ROTATIONS, SOGTOL=   0.250
     MEMORY REQUIRED FOR RHF ITERS=    982670 WORDS.

 DIRECT SCF CALCULATION, SCHWRZ=T   FDIFF=F,  DIRTHR=  0.00E+00 NITDIR=10
 SCHWARZ INEQUALITY OVERHEAD:     62188 INTEGRALS, T=        0.00

                                                                                   NONZERO     BLOCKS
 ITER EX DEM     TOTAL ENERGY        E CHANGE  DENSITY CHANGE     ORB. GRAD      INTEGRALS    SKIPPED
   1  0  0     -563.3616232913  -563.3616232913   0.371633317   0.000000000     1467691064    4142085
          ---------------START SECOND ORDER SCF---------------
   2  1  0     -564.4984614782    -1.1368381869   0.165285595   0.092908652     1454977476    4446528
   3  2  0     -564.6229900254    -0.1245285471   0.064769654   0.061688936     1453791415    4463684
   4  3  0     -564.7191509623    -0.0961609369   0.020472995   0.010865284     1454116189    4451025
   5  4  0     -564.7216709514    -0.0025199891   0.006502798   0.005698485     1454692988    4442118
   6  5  0     -564.7223018905    -0.0006309391   0.002737526   0.001078118     1454732832    4440946
   7  6  0     -564.7223576173    -0.0000557268   0.000948723   0.000355911     1454713745    4440667
   8  7  0     -564.7223638330    -0.0000062157   0.000392120   0.000141286     1454720632    4440638
   9  8  0     -564.7223647446    -0.0000009115   0.000163552   0.000054718     1454721276    4440647
  10  9  0     -564.7223649123    -0.0000001677   0.000066105   0.000021969     1454721433    4440689
  11 10  0     -564.7223649456    -0.0000000334   0.000035320   0.000010076     1454724902    4440692
  12 11  0     -564.7223649503    -0.0000000047   0.000011999   0.000004230     1454724101    4440693
  13 12  0     -564.7223649509    -0.0000000006   0.000004160   0.000001874     1454724008    4440689
  14 13  0     -564.7223649510    -0.0000000001   0.000002077   0.000000751     1454723855    4440690
  15 14  0     -564.7223649510    -0.0000000000   0.000000829   0.000000252     1454724008    4440691

          -----------------
          DENSITY CONVERGED
          -----------------
     TIME TO FORM FOCK OPERATORS=      98.1 SECONDS (       6.5 SEC/ITER)
     FOCK TIME ON FIRST ITERATION=       6.6, LAST ITERATION=       6.5
     TIME TO SOLVE SCF EQUATIONS=       0.4 SECONDS (       0.0 SEC/ITER)

 FINAL RHF ENERGY IS     -564.7223649510 AFTER  15 ITERATIONS

          ------------
          EIGENVECTORS
          ------------

                      1          2          3          4          5
                  -80.4731   -21.0460   -11.6388   -11.6379   -11.6281
                     A          A          A          A          A   
    1  LA 1  S    0.000003  -0.000019   0.000002   0.000002   0.000006
    2  LA 1  X   -0.000002   0.000009  -0.000009   0.000001   0.000007
    3  LA 1  Y    0.000000  -0.000004  -0.000006   0.000012  -0.000007
    4  LA 1  Z    0.000004  -0.000004  -0.000005  -0.000001   0.000015
    5  LA 1 XX    0.000003  -0.000001  -0.000001  -0.000012   0.000004
    6  LA 1 YY    0.000004  -0.000008  -0.000013   0.000010   0.000000
    7  LA 1 ZZ   -0.000007   0.000009   0.000014   0.000002  -0.000004
    8  LA 1 XY   -0.000000   0.000003   0.000006   0.000002  -0.000005
    9  LA 1 XZ    0.000003  -0.000023   0.000014  -0.000006   0.000003
   10  LA 1 YZ    0.000001   0.000009   0.000009  -0.000016  -0.000002
   11  LA 1 XX   -0.000001   0.000068   0.000008   0.000037   0.000024
   12  LA 1 YY    0.000001   0.000070   0.000038  -0.000009   0.000029
   13  LA 1 ZZ    0.000000  -0.000138  -0.000046  -0.000028  -0.000053
   14  LA 1 XY   -0.000000  -0.000014  -0.000016  -0.000003   0.000009
   15  LA 1 XZ    0.000004   0.000060  -0.000015   0.000023   0.000004
   16  LA 1 YZ   -0.000002   0.000018  -0.000014   0.000028   0.000022
   17  LA 1  S   -0.000008  -0.000134  -0.000106  -0.000108  -0.000134
   18  LA 1  X    0.000001   0.000035  -0.000009   0.000016   0.000019
   19  LA 1  Y   -0.000001   0.000002  -0.000017   0.000024  -0.000003
   20  LA 1  Z    0.000003  -0.000101  -0.000033  -0.000024  -0.000035
   21  LA 1  S    0.000003   0.000052   0.000199   0.000199   0.000195
   22  LA 1  X   -0.000001  -0.000026   0.000037  -0.000016  -0.000041
   23  LA 1  Y    0.000001   0.000005   0.000004  -0.000083  -0.000009
   24  LA 1  Z   -0.000002   0.000042   0.000172   0.000154   0.000156
   25  LA 1  S   -0.000017  -0.000039  -0.000006  -0.000008  -0.000033
   26  LA 1  X    0.000007   0.000002   0.000019  -0.000001  -0.000006
   27  LA 1  Y    0.000001   0.000024   0.000013  -0.000022   0.000018
   28  LA 1  Z   -0.000022  -0.000121  -0.000000  -0.000010  -0.000064
   29  LA 1 XX   -0.000000  -0.000012  -0.000038  -0.000063  -0.000041
   30  LA 1 YY   -0.000001  -0.000017  -0.000064  -0.000010  -0.000052
   31  LA 1 ZZ    0.000001   0.000029   0.000102   0.000073   0.000092
   32  LA 1 XY    0.000000   0.000003   0.000006   0.000000  -0.000008
   33  LA 1 XZ   -0.000002  -0.000026   0.000042  -0.000013  -0.000027
   34  LA 1 YZ    0.000001   0.000003  -0.000001  -0.000075  -0.000022
   35  P  2  S    1.000138   0.000085   0.000078   0.000080   0.000086
   36  P  2  S    0.000177   0.000530   0.000559   0.000570   0.000612
   37  P  2  S    0.000191   0.000705   0.000871   0.000888   0.000943
   38  P  2  S   -0.000946  -0.000249  -0.000271  -0.000278  -0.000308
   39  P  2  S   -0.000354  -0.002489   0.000046   0.000066   0.000222
   40  P  2  X    0.000001  -0.000008   0.000418   0.000006  -0.000435
   41  P  2  Y    0.000016   0.000036   0.000207  -0.000496   0.000216
   42  P  2  Z   -0.000082  -0.000155   0.000170   0.000030   0.000212
   43  P  2  X    0.000002  -0.000022   0.001099   0.000015  -0.001133
   44  P  2  Y    0.000015   0.000100   0.000548  -0.001301   0.000563
   45  P  2  Z   -0.000077  -0.000430   0.000431   0.000062   0.000544
   46  P  2  X   -0.000001   0.000007  -0.000045  -0.000000   0.000056
   47  P  2  Y   -0.000008  -0.000032  -0.000020   0.000058  -0.000026
   48  P  2  Z    0.000042   0.000140  -0.000033  -0.000017  -0.000036
   49  P  2  X   -0.000014  -0.000096  -0.000047  -0.000027   0.000031
   50  P  2  Y    0.000023  -0.000206  -0.000054  -0.000020  -0.000070
   51  P  2  Z   -0.000079   0.001251   0.000275   0.000287   0.000237
   52  P  2 XX   -0.000004  -0.000092   0.000137  -0.000156   0.000122
   53  P  2 YY   -0.000003  -0.000077  -0.000081   0.000250  -0.000088
   54  P  2 ZZ    0.000007   0.000169  -0.000056  -0.000094  -0.000034
   55  P  2 XY    0.000001   0.000001   0.000168  -0.000003  -0.000163
   56  P  2 XZ    0.000000   0.000013   0.000125   0.000007  -0.000155
   57  P  2 YZ   -0.000002  -0.000068   0.000041  -0.000024   0.000062
   58  P  2 XX   -0.000026  -0.000094   0.000348  -0.000104   0.000285
   59  P  2 YY   -0.000022  -0.000109  -0.000071   0.000547  -0.000081
   60  P  2 ZZ    0.000048   0.000203  -0.000278  -0.000443  -0.000204
   61  P  2 XY   -0.000003  -0.000042   0.000205  -0.000023  -0.000216
   62  P  2 XZ    0.000008   0.000018   0.000325  -0.000033  -0.000409
   63  P  2 YZ   -0.000022  -0.000090   0.000261  -0.000124   0.000256
   64  P  2 XXX   0.000001   0.000017   0.000036   0.000001  -0.000021
   65  P  2 YYY  -0.000006   0.000012  -0.000035  -0.000080  -0.000045
   66  P  2 ZZZ  -0.000013  -0.000233  -0.000057  -0.000019  -0.000075
   67  P  2 XXY  -0.000001  -0.000178   0.000047   0.000027   0.000050
   68  P  2 XXZ   0.000010   0.000149   0.000047   0.000037   0.000071
   69  P  2 YYX   0.000000   0.000006   0.000007   0.000004  -0.000001
   70  P  2 YYZ   0.000007   0.000165   0.000030  -0.000011   0.000030
   71  P  2 ZZX  -0.000002  -0.000029  -0.000056  -0.000006   0.000030
   72  P  2 ZZY   0.000009   0.000161   0.000001   0.000081   0.000011
   73  P  2 XYZ   0.000001   0.000015   0.000020   0.000003  -0.000032
   74  P  2 XX    0.000001   0.000027  -0.000001   0.000005  -0.000001
   75  P  2 YY    0.000001   0.000023   0.000003  -0.000003   0.000004
   76  P  2 ZZ   -0.000002  -0.000050  -0.000002  -0.000002  -0.000002
   77  P  2 XY   -0.000000   0.000001  -0.000003   0.000000   0.000004
   78  P  2 XZ   -0.000000  -0.000004  -0.000002  -0.000001   0.000003
   79  P  2 YZ    0.000001   0.000020   0.000001   0.000001  -0.000000
[...]
            143  C  4 XXY     0.00129     0.07620
            144  C  4 XXZ     0.00083     0.07740
            145  C  4 YYX     0.00085     0.06884
            146  C  4 YYZ     0.00135     0.06660
            147  C  4 ZZX     0.00000     0.06959
            148  C  4 ZZY     0.00000     0.06693
            149  C  4 XYZ     0.00000     0.00300
            150  C  5  S      1.95557     1.55563
            151  C  5  S      0.82771     0.43079
            152  C  5  S      0.16159     0.27789
            153  C  5  S      0.33289     0.14802
            154  C  5  X      0.27192     0.21070
            155  C  5  Y      0.29444     0.22632
            156  C  5  Z      0.29361     0.22591
            157  C  5  X      0.51428     0.26541
            158  C  5  Y      0.53849     0.27958
            159  C  5  Z      0.53922     0.28054
            160  C  5  X      0.13274     0.18303
            161  C  5  Y      0.19032     0.20278
            162  C  5  Z      0.24176     0.21124
            163  C  5 XX      0.00523     0.08572
            164  C  5 YY      0.00522     0.08680
            165  C  5 ZZ      0.00431     0.08553
            166  C  5 XY      0.00414     0.00475
            167  C  5 XZ      0.00332     0.00450
            168  C  5 YZ      0.00000     0.00373
            169  C  5 XX      0.00848     0.09231
            170  C  5 YY      0.01287     0.09018
            171  C  5 ZZ      0.01171     0.08486
            172  C  5 XY      0.01010     0.02706
            173  C  5 XZ      0.00818     0.02463
            174  C  5 YZ      0.00000     0.01527
            175  C  5 XXX     0.00092     0.15956
            176  C  5 YYY     0.00072     0.17162
            177  C  5 ZZZ     0.00082     0.16874
            178  C  5 XXY     0.00125     0.07674
            179  C  5 XXZ     0.00086     0.07785
            180  C  5 YYX     0.00078     0.06930
            181  C  5 YYZ     0.00141     0.06659
            182  C  5 ZZX     0.00000     0.06938
            183  C  5 ZZY     0.00000     0.06636
            184  C  5 XYZ     0.00000     0.00288
            185  C  6  S      1.95557     1.55598
            186  C  6  S      0.82775     0.43279
            187  C  6  S      0.16161     0.27892
            188  C  6  S      0.33169     0.14883
            189  C  6  X      0.30060     0.22832
            190  C  6  Y      0.26049     0.20721
            191  C  6  Z      0.29888     0.22919
            192  C  6  X      0.54354     0.27935
            193  C  6  Y      0.50124     0.26648
            194  C  6  Z      0.54712     0.28053
            195  C  6  X      0.19833     0.20585
            196  C  6  Y      0.10834     0.17158
            197  C  6  Z      0.25598     0.21360
            198  C  6 XX      0.00565     0.08701
            199  C  6 YY      0.00602     0.09050
            200  C  6 ZZ      0.00358     0.08660
            201  C  6 XY      0.00427     0.00324
            202  C  6 XZ      0.00269     0.00452
            203  C  6 YZ      0.00000     0.00256
            204  C  6 XX      0.01066     0.08862
            205  C  6 YY      0.01481     0.10358
            206  C  6 ZZ      0.01033     0.08659
            207  C  6 XY      0.00854     0.02269
            208  C  6 XZ      0.00704     0.01982
            209  C  6 YZ      0.00000     0.01294
            210  C  6 XXX     0.00089     0.16290
            211  C  6 YYY     0.00095     0.16918
            212  C  6 ZZZ     0.00060     0.16672
            213  C  6 XXY     0.00140     0.07092
            214  C  6 XXZ     0.00093     0.07542
            215  C  6 YYX     0.00050     0.07877
            216  C  6 YYZ     0.00149     0.07305
            217  C  6 ZZX     0.00000     0.07364
            218  C  6 ZZY     0.00000     0.06409
            219  C  6 XYZ     0.00000     0.00267
            220  H  7  S      0.25225     0.19454
            221  H  7  S      0.45173     0.24403
            222  H  7  S      0.05904     0.11837
            223  H  7  X      0.00158     0.00205
            224  H  7  Y      0.00749     0.01106
            225  H  7  Z      0.00170     0.00218
            226  H  7  X      0.01042     0.02845
            227  H  7  Y      0.00521     0.04782
            228  H  7  Z      0.00873     0.02949
            229  H  7 XX      0.00032     0.06903
            230  H  7 YY      0.00065     0.11657
            231  H  7 ZZ      0.00100     0.06956
            232  H  7 XY      0.00009     0.00484
            233  H  7 XZ      0.00084     0.00015
            234  H  7 YZ      0.00000     0.00512
            235  H  8  S      0.24767     0.19046
            236  H  8  S      0.44974     0.24012
            237  H  8  S      0.04773     0.11481
            238  H  8  X      0.00160     0.00208
            239  H  8  Y      0.00185     0.00256
            240  H  8  Z      0.00733     0.01057
            241  H  8  X      0.00961     0.02881
            242  H  8  Y      0.00782     0.02897
            243  H  8  Z      0.00651     0.04759
            244  H  8 XX      0.00091     0.06797
            245  H  8 YY      0.00012     0.07038
            246  H  8 ZZ      0.00009     0.11233
            247  H  8 XY      0.00094     0.00020
            248  H  8 XZ      0.00080     0.00488
            249  H  8 YZ      0.00000     0.00540
            250  H  9  S      0.25218     0.18684
            251  H  9  S      0.45146     0.24195
            252  H  9  S      0.05856     0.11864
            253  H  9  X      0.00589     0.00778
            254  H  9  Y      0.00247     0.00350
            255  H  9  Z      0.00242     0.00342
            256  H  9  X      0.01017     0.04408
            257  H  9  Y      0.00698     0.03106
            258  H  9  Z      0.00719     0.03191
            259  H  9 XX      0.00047     0.09944
            260  H  9 YY      0.00089     0.07487
            261  H  9 ZZ      0.00063     0.07442
            262  H  9 XY      0.00064     0.00522
            263  H  9 XZ      0.00025     0.00528
            264  H  9 YZ      0.00000     0.00165
            265  H 10  S      0.25372     0.18742
            266  H 10  S      0.45470     0.24335
            267  H 10  S      0.06722     0.12042
            268  H 10  X      0.00562     0.00742
            269  H 10  Y      0.00246     0.00348
            270  H 10  Z      0.00262     0.00364
            271  H 10  X      0.01025     0.04386
            272  H 10  Y      0.00698     0.03137
            273  H 10  Z      0.00695     0.03319
            274  H 10 XX      0.00049     0.09823
            275  H 10 YY      0.00089     0.07504
            276  H 10 ZZ      0.00061     0.07635
            277  H 10 XY      0.00062     0.00503
            278  H 10 XZ      0.00026     0.00532
            279  H 10 YZ      0.00000     0.00186
            280  H 11  S      0.24713     0.19029
            281  H 11  S      0.44589     0.23916
            282  H 11  S      0.04377     0.11337
            283  H 11  X      0.00161     0.00216
            284  H 11  Y      0.00183     0.00252
            285  H 11  Z      0.00734     0.01060
            286  H 11  X      0.00988     0.02866
            287  H 11  Y      0.00774     0.02884
            288  H 11  Z      0.00578     0.04772
            289  H 11 XX      0.00089     0.06803
            290  H 11 YY      0.00012     0.07009
            291  H 11 ZZ      0.00009     0.11224
            292  H 11 XY      0.00095     0.00021
            293  H 11 XZ      0.00080     0.00491
            294  H 11 YZ      0.00000     0.00534
            295  H 12  S      0.25270     0.19478
            296  H 12  S      0.44973     0.24424
            297  H 12  S      0.05889     0.11840
            298  H 12  X      0.00157     0.00202
            299  H 12  Y      0.00746     0.01104
            300  H 12  Z      0.00175     0.00219
            301  H 12  X      0.01039     0.02830
            302  H 12  Y      0.00490     0.04800
            303  H 12  Z      0.00819     0.02985
            304  H 12 XX      0.00031     0.06905
            305  H 12 YY      0.00064     0.11661
            306  H 12 ZZ      0.00101     0.06973
            307  H 12 XY      0.00008     0.00480
            308  H 12 XZ      0.00083     0.00014
            309  H 12 YZ      0.00000     0.00517
            310  H 13  S      0.25368     0.18760
            311  H 13  S      0.45483     0.24284
            312  H 13  S      0.06719     0.11995
            313  H 13  X      0.00539     0.00688
            314  H 13  Y      0.00264     0.00403
            315  H 13  Z      0.00268     0.00376
            316  H 13  X      0.00410     0.04133
            317  H 13  Y      0.01308     0.03392
            318  H 13  Z      0.00705     0.03285
            319  H 13 XX      0.00048     0.09630
            320  H 13 YY      0.00074     0.07674
            321  H 13 ZZ      0.00073     0.07664
            322  H 13 XY      0.00060     0.00495
            323  H 13 XZ      0.00032     0.00519
            324  H 13 YZ      0.00000     0.00207
            325  H 14  S      0.25259     0.18736
            326  H 14  S      0.44962     0.24162
            327  H 14  S      0.05839     0.11816
            328  H 14  X      0.00564     0.00726
            329  H 14  Y      0.00264     0.00403
            330  H 14  Z      0.00251     0.00353
            331  H 14  X      0.00402     0.04194
            332  H 14  Y      0.01242     0.03343
            333  H 14  Z      0.00708     0.03178
            334  H 14 XX      0.00045     0.09771
            335  H 14 YY      0.00075     0.07655
            336  H 14 ZZ      0.00074     0.07482
            337  H 14 XY      0.00063     0.00517
            338  H 14 XZ      0.00030     0.00518
            339  H 14 YZ      0.00000     0.00183
            340  H 15  S      0.24717     0.19045
            341  H 15  S      0.44617     0.23936
            342  H 15  S      0.04413     0.11354
            343  H 15  X      0.00162     0.00208
            344  H 15  Y      0.00199     0.00306
            345  H 15  Z      0.00717     0.01023
            346  H 15  X      0.00785     0.02781
            347  H 15  Y      0.01135     0.03082
            348  H 15  Z      0.00426     0.04729
            349  H 15 XX      0.00086     0.06719
            350  H 15 YY      0.00019     0.07231
            351  H 15 ZZ      0.00011     0.11123
            352  H 15 XY      0.00077     0.00028
            353  H 15 XZ      0.00094     0.00501
            354  H 15 YZ      0.00000     0.00532

          ----- MULLIKEN ATOMIC OVERLAP POPULATIONS -----
          (OFF-DIAGONAL ELEMENTS NEED TO BE MULTIPLIED BY 2)

             1           2           3           4           5

    1    8.5861956
    2   -0.0113103  13.2786728
    3    0.0218017   0.2125472   8.5842868
    4   -0.0005344   0.3433901  -0.0173964   4.9957635
    5    0.0006285   0.3456127  -0.0157867  -0.0320083   5.0234637
    6    0.0004661   0.3457446  -0.0162712  -0.0320790  -0.0315528
    7    0.0004016  -0.0157915   0.0008651   0.3646475  -0.0025599
    8    0.0006183  -0.0141608   0.0010077   0.3598043  -0.0003594
    9    0.0003888  -0.0158981   0.0008574   0.3648156   0.0022189
   10    0.0008489  -0.0165222   0.0006082   0.0026030   0.3632902
   11    0.0003384  -0.0136005   0.0013510  -0.0007436   0.3573301
   12    0.0007042  -0.0180840   0.0009182  -0.0024739   0.3656474
   13    0.0008161  -0.0162717   0.0006542   0.0026031  -0.0032247
   14    0.0006569  -0.0179389   0.0009442  -0.0024178   0.0022979
   15    0.0003630  -0.0135608   0.0013157  -0.0007473  -0.0001455

             6           7           8           9          10

    6    5.0207343
    7    0.0022424   0.4794181
    8   -0.0004001  -0.0117262   0.4600449
    9   -0.0025091  -0.0168364  -0.0116096   0.4784097
   10   -0.0032217   0.0000173   0.0000103  -0.0000701   0.4965912
   11   -0.0001779  -0.0001754  -0.0000233   0.0000174  -0.0108349
   12    0.0023233   0.0006182  -0.0002399  -0.0000167  -0.0205982
   13    0.3630963  -0.0000704   0.0000100   0.0000172   0.0008526
   14    0.3655988  -0.0000151  -0.0002386   0.0006052  -0.0000117
   15    0.3575119   0.0000159  -0.0000217  -0.0001834  -0.0001739

            11          12          13          14          15

   11    0.4497672
   12   -0.0091721   0.4788849
   13   -0.0001653  -0.0000101   0.4964620
   14    0.0000196  -0.0000659  -0.0202123   0.4778324
   15   -0.0001056   0.0000189  -0.0110423  -0.0092696   0.4505831

          TOTAL MULLIKEN AND LOWDIN ATOMIC POPULATIONS
       ATOM         MULL.POP.    CHARGE          LOW.POP.     CHARGE
    1 LA            8.602384    2.397616         8.775651    2.224349
    2 P            14.372828    0.627172        14.313837    0.686163
    3 O             8.777703   -0.777703         8.412141   -0.412141
    4 C             6.345227   -0.345227         6.025320   -0.025320
    5 C             6.374852   -0.374852         6.032186   -0.032186
    6 C             6.371506   -0.371506         6.044648   -0.044648
    7 H             0.801051    0.198949         0.943246    0.056754
    8 H             0.782716    0.217284         0.927132    0.072868
    9 H             0.800207    0.199793         0.930057    0.069943
   10 H             0.813389    0.186611         0.935973    0.064027
   11 H             0.773825    0.226175         0.924138    0.075862
   12 H             0.798454    0.201546         0.944309    0.055691
   13 H             0.813515    0.186485         0.935035    0.064965
   14 H             0.797785    0.202215         0.930356    0.069644
   15 H             0.774558    0.225442         0.925973    0.074027

          MULLIKEN SPHERICAL HARMONIC POPULATIONS
       ATOM           S       P       D      F      G      H      I    TOTAL
    1 LA            2.01    6.10    0.50   0.00   0.00   0.00   0.00    8.60
    2 P             5.34    8.39    0.57   0.07   0.00   0.00   0.00   14.37
    3 O             3.78    4.95    0.04   0.00   0.00   0.00   0.00    8.78
    4 C             3.27    3.00    0.07   0.01   0.00   0.00   0.00    6.35
    5 C             3.28    3.02    0.07   0.01   0.00   0.00   0.00    6.37
    6 C             3.28    3.01    0.07   0.01   0.00   0.00   0.00    6.37
    7 H             0.76    0.04    0.00   0.00   0.00   0.00   0.00    0.80
    8 H             0.75    0.03    0.00   0.00   0.00   0.00   0.00    0.78
    9 H             0.76    0.04    0.00   0.00   0.00   0.00   0.00    0.80
   10 H             0.78    0.03    0.00   0.00   0.00   0.00   0.00    0.81
   11 H             0.74    0.03    0.00   0.00   0.00   0.00   0.00    0.77
   12 H             0.76    0.03    0.00   0.00   0.00   0.00   0.00    0.80
   13 H             0.78    0.03    0.00   0.00   0.00   0.00   0.00    0.81
   14 H             0.76    0.03    0.00   0.00   0.00   0.00   0.00    0.80
   15 H             0.74    0.03    0.00   0.00   0.00   0.00   0.00    0.77

          -------------------------------
          BOND ORDER AND VALENCE ANALYSIS     BOND ORDER THRESHOLD=0.050
          -------------------------------

                   BOND                       BOND                       BOND
  ATOM PAIR DIST  ORDER      ATOM PAIR DIST  ORDER      ATOM PAIR DIST  ORDER
    1   3  2.092  0.683        2   3  1.701  0.779        2   4  1.770  1.026
    2   5  1.773  1.015        2   6  1.773  1.016        4   7  1.090  0.875
    4   8  1.095  0.858        4   9  1.090  0.875        5  10  1.089  0.878
    5  11  1.096  0.856        5  12  1.090  0.875        6  13  1.089  0.878
    6  14  1.090  0.875        6  15  1.096  0.856

                       TOTAL       BONDED        FREE
      ATOM            VALENCE     VALENCE     VALENCE
    1 LA                0.672       0.752      -0.079
    2 P                 4.584       4.230       0.354
    3 O                 2.060       1.498       0.562
    4 C                 3.931       3.640       0.292
    5 C                 3.932       3.639       0.293
    6 C                 3.932       3.639       0.293
    7 H                 0.976       0.925       0.051
    8 H                 0.968       0.917       0.050
    9 H                 0.976       0.925       0.051
   10 H                 0.980       0.928       0.052
   11 H                 0.966       0.916       0.050
   12 H                 0.974       0.923       0.051
   13 H                 0.980       0.928       0.052
   14 H                 0.973       0.923       0.051
   15 H                 0.966       0.916       0.050

          ---------------------
          ELECTROSTATIC MOMENTS
          ---------------------

 POINT   1           X           Y           Z (BOHR)    CHARGE
                 0.345411    1.222011   -4.853244        3.00 (A.U.)
         DX          DY          DZ         /D/  (DEBYE)
     0.886270   -0.239214   -1.024189    1.375376
 ...... END OF PROPERTY EVALUATION ......
 CPU     0: STEP CPU TIME=     0.20 TOTAL CPU TIME=     3141.2 (   52.4 MIN)
 TOTAL WALL CLOCK TIME=     3188.5 SECONDS, CPU UTILIZATION IS  98.52%
  $VIB   
          IVIB=   0 IATOM=   0 ICOORD=   0 E=     -565.6075134592
 -9.073307747E-06-1.045183473E-05 2.381778441E-05 4.191963838E-05-4.285559289E-05
  4.279300774E-05 1.337993036E-05 3.132500503E-05-7.444830383E-05-1.051544451E-05
  2.970561817E-06 9.426226324E-06-1.774543394E-05 1.080913448E-05 1.594571116E-06
 -1.653085882E-05 7.584677510E-06 5.780495502E-07-6.656861621E-06-5.236955351E-07
 -1.159999387E-06 4.775401502E-06-3.031162938E-06-8.333554022E-07-3.103195063E-06
  6.223056263E-06 1.798001250E-06-4.426334438E-06-2.247002136E-06-7.623234607E-06
 -9.312302979E-06-5.743568072E-06 1.127016974E-06 9.975355623E-06-1.865277656E-06
  2.420860629E-06 1.335396128E-06 7.360871988E-06-6.052365709E-06 5.637921064E-06
 -8.814311527E-06 2.624669362E-06 3.400960710E-07 9.259138394E-06 3.937071586E-06
  8.862697414E-01-2.392136964E-01-1.024188907E+00
 ......END OF GEOMETRY SEARCH......
 CPU     0: STEP CPU TIME=     0.00 TOTAL CPU TIME=     3141.2 (   52.4 MIN)
 TOTAL WALL CLOCK TIME=     3188.5 SECONDS, CPU UTILIZATION IS  98.52%
               2991967  WORDS OF DYNAMIC MEMORY USED
 EXECUTION OF GAMESS TERMINATED NORMALLY Fri Jun 10 12:43:49 2016
 DDI: 44487344 bytes (42.4 MB / 5 MWords) used by master data server.

 ----------------------------------------
 CPU timing information for all processes
 ========================================
 0: 3136.887 + 4.436 = 3141.323
 1: 3136.630 + 4.114 = 3140.744
 2: 3138.562 + 4.435 = 3142.998
 3: 3137.373 + 4.242 = 3141.615
 4: 3137.793 + 4.392 = 3142.186
 5: 3138.686 + 4.338 = 3143.25
 6: 3140.168 + 4.288 = 3144.456
 7: 3138.501 + 4.427 = 3142.929
 8: 3139.580 + 4.326 = 3143.907
 9: 3140.271 + 4.401 = 3144.672
 10: 3140.911 + 4.400 = 3145.311
 11: 3140.843 + 4.416 = 3145.259
 12: 3136.416 + 4.448 = 3140.864
 13: 3139.116 + 4.303 = 3143.420
 14: 3140.449 + 4.135 = 3144.584
 15: 3139.164 + 3.259 = 3142.424
 16: 0.13 + 0.70 = 0.84
 17: 0.23 + 0.65 = 0.89
 18: 0.17 + 0.73 = 0.91
 19: 0.16 + 0.76 = 0.93
 20: 0.22 + 0.71 = 0.94
 21: 0.18 + 0.65 = 0.84
 22: 0.16 + 0.74 = 0.91
 23: 0.12 + 0.72 = 0.85
 24: 0.19 + 0.68 = 0.88
 25: 0.22 + 0.49 = 0.72
 26: 0.16 + 0.65 = 0.82
 27: 0.13 + 0.73 = 0.87
 28: 0.18 + 0.70 = 0.89
 29: 0.19 + 0.66 = 0.86
 30: 0.18 + 0.66 = 0.85
 31: 0.17 + 0.70 = 0.88
 ----------------------------------------
unset echo
----- accounting info -----
Files used on the master node node157 were:
-rw-r--r-- 1 fzahari quantum     1968 Jun 10 11:50 /local/scratch/fzahari/196751.share/ang_var-1640.F05
-rw-r--r-- 1 fzahari quantum 17178000 Jun 10 12:43 /local/scratch/fzahari/196751.share/ang_var-1640.F10
-rw-r--r-- 1 fzahari quantum        8 Jun 10 11:50 /local/scratch/fzahari/196751.share/ang_var-1640.nodes.mpd
ls: No match.
ls: No match.
ls: No match.
Fri Jun 10 12:43:52 CDT 2016
50222.280u 73.126s 53:13.06 1575.1%	0+0k 104+429792io 0pf+0w
