----- GAMESS execution script 'rungms' -----
This job is running on host node240
under operating system Linux at Fri Jun 10 00:20:03 CDT 2016
PBS has assigned the following compute nodes to this run:
node240
Available scratch disk space (Kbyte units) at beginning of the job is
Filesystem           1K-blocks      Used Available Use% Mounted on
/dev/sda7            2670838024   1348916 2533818324   1% /local
GAMESS temporary binary files will be written to /local/scratch/fzahari/196715.share
GAMESS supplementary output files will be written to /work1/quantum/fzahari/scr
Copying input file ang_var-1760.inp to your run's scratch directory...
cp ang_var-1760.inp /local/scratch/fzahari/196715.share/ang_var-1760.F05
unset echo
setenv I_MPI_WAIT_MODE enable
setenv I_MPI_PIN disable
setenv I_MPI_DEBUG 0
setenv I_MPI_STATS 0
setenv I_MPI_FABRICS dapl
setenv I_MPI_DAT_LIBRARY libdat2.so
unset echo
MPI kickoff will run GAMESS on 16 cores in 1 nodes.
The binary to be executed is /home/mschmidt/gamess/gamess.132.x
MPI will run 16 compute processes and 16 data servers,
    placing 16 of each process type onto each node.
The scratch disk space on each node is /local/scratch/fzahari/196715.share, with free space
Filesystem           1K-blocks      Used Available Use% Mounted on
/dev/sda7            2670838024   1348940 2533818300   1% /local
setenv I_MPI_HYDRA_ENV all
setenv I_MPI_PERHOST 32
unset echo
mpiexec.hydra -f /local/scratch/fzahari/196715.share/ang_var-1760.processes.mpd -n 32 /home/mschmidt/gamess/gamess.132.x
          ******************************************************
          *         GAMESS VERSION =  5 DEC 2014 (R1)          *
          *             FROM IOWA STATE UNIVERSITY             *
          * M.W.SCHMIDT, K.K.BALDRIDGE, J.A.BOATZ, S.T.ELBERT, *
          *   M.S.GORDON, J.H.JENSEN, S.KOSEKI, N.MATSUNAGA,   *
          *          K.A.NGUYEN, S.J.SU, T.L.WINDUS,           *
          *       TOGETHER WITH M.DUPUIS, J.A.MONTGOMERY       *
          *         J.COMPUT.CHEM.  14, 1347-1363(1993)        *
          **************** 64 BIT INTEL VERSION ****************

  SINCE 1993, STUDENTS AND POSTDOCS WORKING AT IOWA STATE UNIVERSITY
  AND ALSO IN THEIR VARIOUS JOBS AFTER LEAVING ISU HAVE MADE IMPORTANT
  CONTRIBUTIONS TO THE CODE:
     IVANA ADAMOVIC, CHRISTINE AIKENS, YURI ALEXEEV, POOJA ARORA,
     ANDREY ASADCHEV, ROB BELL, PRADIPTA BANDYOPADHYAY, JONATHAN BENTZ,
     BRETT BODE, KURT BRORSEN, CALEB CARLIN, GALINA CHABAN, WEI CHEN,
     CHEOL HO CHOI, PAUL DAY, ALBERT DEFUSCO, NUWAN DESILVA, TIM DUDLEY,
     DMITRI FEDOROV, GRAHAM FLETCHER, MARK FREITAG, KURT GLAESEMANN,
     DAN KEMP, GRANT MERRILL, NORIYUKI MINEZAWA, JONATHAN MULLIN,
     TAKESHI NAGATA, SEAN NEDD, HEATHER NETZLOFF, BOSILJKA NJEGIC, RYAN OLSON,
     MIKE PAK, SPENCER PRUITT, LUKE ROSKOP, JIM SHOEMAKER, LYUDMILA SLIPCHENKO,
     TONY SMITH, SAROM SOK, JIE SONG, TETSUYA TAKETSUGU, SIMON WEBB,
     PENG XU, SOOHAENG YOO, FEDERICO ZAHARIEV

  ADDITIONAL CODE HAS BEEN PROVIDED BY COLLABORATORS IN OTHER GROUPS:
     IOWA STATE UNIVERSITY:
          JOE IVANIC, AARON WEST, LAIMUTIS BYTAUTAS, KLAUS RUEDENBERG
     UNIVERSITY OF TOKYO: KIMIHIKO HIRAO, TAKAHITO NAKAJIMA,
          TAKAO TSUNEDA, MUNEAKI KAMIYA, SUSUMU YANAGISAWA,
          KIYOSHI YAGI, MAHITO CHIBA, SEIKEN TOKURA, NAOAKI KAWAKAMI
     UNIVERSITY OF AARHUS: FRANK JENSEN
     UNIVERSITY OF IOWA: VISVALDAS KAIRYS, HUI LI
     NATIONAL INST. OF STANDARDS AND TECHNOLOGY: WALT STEVENS, DAVID GARMER
     UNIVERSITY OF PISA: BENEDETTA MENNUCCI, JACOPO TOMASI
     UNIVERSITY OF MEMPHIS: HENRY KURTZ, PRAKASHAN KORAMBATH
     UNIVERSITY OF ALBERTA: TOBY ZENG, MARIUSZ KLOBUKOWSKI
     UNIVERSITY OF NEW ENGLAND: MARK SPACKMAN
     MIE UNIVERSITY: HIROAKI UMEDA
     NAT. INST. OF ADVANCED INDUSTRIAL SCIENCE AND TECHNOLOGY: KAZUO KITAURA
     MICHIGAN STATE UNIVERSITY:
          KAROL KOWALSKI, MARTA WLOCH, JEFFREY GOUR, JESSE LUTZ,
          WEI LI, PIOTR PIECUCH
     UNIVERSITY OF SILESIA: MONIKA MUSIAL, STANISLAW KUCHARSKI
     FACULTES UNIVERSITAIRES NOTRE-DAME DE LA PAIX:
          OLIVIER QUINET, BENOIT CHAMPAGNE
     UNIVERSITY OF CALIFORNIA - SANTA BARBARA: BERNARD KIRTMAN
     INSTITUTE FOR MOLECULAR SCIENCE:
          KAZUYA ISHIMURA, MICHIO KATOUDA, AND SHIGERU NAGASE
     UNIVERSITY OF NOTRE DAME: ANNA POMOGAEVA, DAN CHIPMAN
     KYUSHU UNIVERSITY:
          HARUYUKI NAKANO,
          FENG LONG GU, JACEK KORCHOWIEC, MARCIN MAKOWSKI, AND YURIKO AOKI,
          HIROTOSHI MORI AND EISAKU MIYOSHI
     PENNSYLVANIA STATE UNIVERSITY:
          TZVETELIN IORDANOV, CHET SWALINA, JONATHAN SKONE,
          SHARON HAMMES-SCHIFFER
     WASEDA UNIVERSITY:
          MASATO KOBAYASHI, TOMOKO AKAMA, TSUGUKI TOUMA,
          TAKESHI YOSHIKAWA, YASUHIRO IKABATA, HIROMI NAKAI
     NANJING UNIVERSITY: SHUHUA LI
     UNIVERSITY OF NEBRASKA:
          PEIFENG SU, DEJUN SI, NANDUN THELLAMUREGE, YALI WANG, HUI LI
     UNIVERSITY OF ZURICH: ROBERTO PEVERATI, KIM BALDRIDGE
     N. COPERNICUS UNIVERSITY AND JACKSON STATE UNIVERSITY:
          MARIA BARYSZ
     UNIVERSITY OF COPENHAGEN: CASPER STEINMANN
     TOKYO INSTITUTE OF TECHNOLOGY: HIROYA NAKATA
     NAGOYA UNIVERSITY: YOSHIO NISHIMOTO, STEPHAN IRLE


 PARALLEL VERSION RUNNING ON       16 PROCESSORS IN        1 NODES.

 EXECUTION OF GAMESS BEGUN Fri Jun 10 00:20:04 2016

            ECHO OF THE FIRST FEW INPUT CARDS -
 INPUT CARD> $ZMAT DLC=.T. AUTO=.T. $END                                                    
 INPUT CARD> $ZMAT IFZMAT(1)=2, 1 , 3 , 2  FVALUE(1)= 176.0 $END                            
 INPUT CARD> $CONTRL COORD=UNIQUE NZVAR= 39 $END                                            
 INPUT CARD> $CONTRL ICHARG=+3 MULT=1                                                       
 INPUT CARD>         MPLEVL=2                                                               
 INPUT CARD>         SCFTYP=RHF                                                             
 INPUT CARD>         MAXIT=200 ISPHER=1 ICUT=11                                             
 INPUT CARD>         RUNTYP=OPTIMIZE                                                        
 INPUT CARD>         PP=READ                                                                
 INPUT CARD>         $END                                                                   
 INPUT CARD> $SCF    DIRSCF=.T. FDIFF=.F. $END                                              
 INPUT CARD> $TRANS  DIRTRF=.T. $END                                                        
 INPUT CARD> $SYSTEM MWORDS=300 MEMDDI=300 $END                                             
 INPUT CARD> $GUESS  GUESS=HUCKEL $END                                                      
 INPUT CARD> $BASIS  BASNAM(1)=METAL,                                                       
 INPUT CARD>                   LIGP,                                                        
 INPUT CARD>                   LIGO,                                                        
 INPUT CARD>                   LIGC,                                                        
 INPUT CARD>                   LIGC,                                                        
 INPUT CARD>                   LIGC,                                                        
 INPUT CARD>                   LIGH,                                                        
 INPUT CARD>                   LIGH,                                                        
 INPUT CARD>                   LIGH,                                                        
 INPUT CARD>                   LIGH,                                                        
 INPUT CARD>                   LIGH,                                                        
 INPUT CARD>                   LIGH,                                                        
 INPUT CARD>                   LIGH,                                                        
 INPUT CARD>                   LIGH,                                                        
 INPUT CARD>                   LIGH                                                         
 INPUT CARD> $END                                                                           
 INPUT CARD> $DATA                                                                          
 INPUT CARD>                                                                                
 INPUT CARD> C1                                                                             
 INPUT CARD> LA 57.0 0.31435 0.88028 -4.02887                                               
 INPUT CARD> P 15.0 -0.331807174225 0.444479149632 -0.311969396425                          
 INPUT CARD> O 8.0 -0.10013 0.67027 -1.98246                                                
 INPUT CARD> C 6.0 -1.85107743837 1.25978402034 0.0964117814902                             
 INPUT CARD> C 6.0 1.06610473287 1.18096747972 0.489986348146                               
 INPUT CARD> C 6.0 -0.414226772732 -1.30627581897 -0.0516051845943                          
 INPUT CARD> H 1.0 -1.79000042748 2.32998465363 -0.0976254588605                            
 INPUT CARD> H 1.0 -2.00505103551 1.11726399359 1.17146782062                               
 INPUT CARD> H 1.0 -2.69381830863 0.811420195597 -0.428417382296                            
 INPUT CARD> H 1.0 1.99275144919 0.68472966073 0.204029908241                               
 INPUT CARD> H 1.0 0.922022951312 1.03826754569 1.56639767982                               
 INPUT CARD> H 1.0 1.11548300392 2.25147098128 0.294319397157                               
 INPUT CARD> H 1.0 0.518336377656 -1.79253533021 -0.335473591372                            
 INPUT CARD> H 1.0 -1.2627962501 -1.74437456431 -0.575707516886                             
 INPUT CARD> H 1.0 -0.563233881829 -1.45747768021 1.0229767804                              
 INPUT CARD> $END                                                                           
 INPUT CARD>!                                                                               
  300000000 WORDS OF MEMORY AVAILABLE

     BASIS OPTIONS
     -------------
     GBASIS=             IGAUSS=       0      POLAR=NONE    
     NDFUNC=       0     NFFUNC=       0     DIFFSP=       F
     NPFUNC=       0      DIFFS=       F     BASNAM=METAL   

 USING BASNAM FOR ATOM CUSTOMIZED BASIS CONSTRUCTION
     ----------------
     ATOM  BASIS NAME
     ----------------
       1   METAL   
       2   LIGP    
       3   LIGO    
       4   LIGC    
       5   LIGC    
       6   LIGC    
       7   LIGH    
       8   LIGH    
       9   LIGH    
      10   LIGH    
      11   LIGH    
      12   LIGH    
      13   LIGH    
      14   LIGH    
      15   LIGH    
 NOW LOCATING ALL   15 BASIS SETS IN YOUR INPUT FILE...
 FOUND BASIS SET  $METAL 
  SBKJC                        
                               
  $END                         
 FOUND BASIS SET  $LIGP  
  CCT                          
                               
  $END                         
 FOUND BASIS SET  $LIGO  
  CCT                          
                               
  $END                         
 FOUND BASIS SET  $LIGC  
  CCT                          
                               
  $END                         
 FOUND BASIS SET  $LIGH  
  CCT                          
                               
  $END                         
    5 UNIQUE ATOM CUSTOMIZED BASIS SETS WERE FOUND.

     SEARCHING FOR $MCP
     $MCP GROUP NOT FOUND


     RUN TITLE
     ---------
                                                                                 

 THE POINT GROUP OF THE MOLECULE IS C1      
 THE ORDER OF THE PRINCIPAL AXIS IS     0

 ATOM      ATOMIC                      COORDINATES (BOHR)
           CHARGE         X                   Y                   Z
 LA         57.0     0.5940353642        1.6634879925       -7.6134603402
 P          15.0    -0.6270246400        0.8399438001       -0.5895366758
 O           8.0    -0.1892182632        1.2666266378       -3.7463061816
 C           6.0    -3.4980291406        2.3806466022        0.1821918490
 C           6.0     2.0146458193        2.2317049371        0.9259399357
 C           6.0    -0.7827750972       -2.4685033622       -0.0975196584
 H           1.0    -3.3826103258        4.4030325510       -0.1844853667
 H           1.0    -3.7889970485        2.1113228038        2.2137531844
 H           1.0    -5.0905784640        1.5333618306       -0.8095914609
 H           1.0     3.7657542006        1.2939514344        0.3855606199
 H           1.0     1.7423707324        1.9620411633        2.9600624027
 H           1.0     2.1079572214        4.2546632239        0.5561830135
 H           1.0     0.9795137232       -3.3874005974       -0.6339531638
 H           1.0    -2.3863388910       -3.2963899465       -1.0879294560
 H           1.0    -1.0643577037       -2.7542334488        1.9331458068

          INTERNUCLEAR DISTANCES (ANGS.)
          ------------------------------

                1 LA         2 P          3 O          4 C          5 C     

   1 LA      0.0000000    3.7977351    2.0984975 *  4.6745106    4.5908181  
   2 P       3.7977351    0.0000000    1.7015272 *  1.7719140 *  1.7719215 *
   3 O       2.0984975 *  1.7015272 *  0.0000000    2.7811961 *  2.7809902 *
   4 C       4.6745106    1.7719140 *  2.7811961 *  0.0000000    2.9446672 *
   5 C       4.5908181    1.7719215 *  2.7809902 *  2.9446672 *  0.0000000  
   6 C       4.5967908    1.7719271 *  2.7809334 *  2.9446752 *  2.9446701 *
   7 H       4.6887757    2.3931991 *  3.0270309    1.0893623 *  3.1341450  
   8 H       5.6990610    2.3351596 *  3.7115749    1.0953380 *  3.1465017  
   9 H       4.6922359    2.3931783 *  3.0269111    1.0893521 *  3.8880653  
  10 H       4.5577092    2.3932297 *  3.0267309    3.8880959    1.0893563 *
  11 H       5.6303860    2.3351526 *  3.7114161    3.1464287    1.0953466 *
  12 H       4.6056428    2.3932101 *  3.0268194    3.1341811    1.0893583 *
  13 H       4.5636311    2.3932259 *  3.0266277    3.8880972    3.1341910  
  14 H       4.6152500    2.3931943 *  3.0267563    3.1341327    3.8880727  
  15 H       5.6352835    2.3351829 *  3.7113913    3.1465179    3.1464609  

                6 C          7 H          8 H          9 H         10 H     

   1 LA      4.5967908    4.6887757    5.6990610    4.6922359    4.5577092  
   2 P       1.7719271 *  2.3931991 *  2.3351596 *  2.3931783 *  2.3932297 *
   3 O       2.7809334 *  3.0270309    3.7115749    3.0269111    3.0267309  
   4 C       2.9446752 *  1.0893623 *  1.0953380 *  1.0893521 *  3.8880959  
   5 C       2.9446701 *  3.1341450    3.1465017    3.8880653    1.0893563 *
   6 C       0.0000000    3.8880922    3.1464543    3.1341923    3.1341660  
   7 H       3.8880922    0.0000000    1.7684841 *  1.7978732 *  4.1360696  
   8 H       3.1464543    1.7684841 *  0.0000000    1.7684947 *  4.1358732  
   9 H       3.1341923    1.7978732 *  1.7684947 *  0.0000000    4.7307479  
  10 H       3.1341660    4.1360696    4.1358732    4.7307479    0.0000000  
  11 H       3.1464870    3.4340322    2.9546526 *  4.1358258    1.7684724 *
  12 H       3.8880893    2.9328517 *  3.4341735    4.1360454    1.7978961 *
  13 H       1.0893593 *  4.7307675    4.1358540    4.1360803    2.9328835 *
  14 H       1.0893502 *  4.1360500    3.4340267    2.9328494 *  4.1360765  
  15 H       1.0953500 *  4.1358888    2.9546880 *  3.4342150    3.4340628  

               11 H         12 H         13 H         14 H         15 H     

   1 LA      5.6303860    4.6056428    4.5636311    4.6152500    5.6352835  
   2 P       2.3351526 *  2.3932101 *  2.3932259 *  2.3931943 *  2.3351829 *
   3 O       3.7114161    3.0268194    3.0266277    3.0267563    3.7113913  
   4 C       3.1464287    3.1341811    3.8880972    3.1341327    3.1465179  
   5 C       1.0953466 *  1.0893583 *  3.1341910    3.8880727    3.1464609  
   6 C       3.1464870    3.8880893    1.0893593 *  1.0893502 *  1.0953500 *
   7 H       3.4340322    2.9328517 *  4.7307675    4.1360500    4.1358888  
   8 H       2.9546526 *  3.4341735    4.1358540    3.4340267    2.9546880 *
   9 H       4.1358258    4.1360454    4.1360803    2.9328494 *  3.4342150  
  10 H       1.7684724 *  1.7978961 *  2.9328835 *  4.1360765    3.4340628  
  11 H       0.0000000    1.7684662 *  3.4341698    4.1358369    2.9546638 *
  12 H       1.7684662 *  0.0000000    4.1360864    4.7307442    4.1358593  
  13 H       3.4341698    4.1360864    0.0000000    1.7979058 *  1.7684584 *
  14 H       4.1358369    4.7307442    1.7979058 *  0.0000000    1.7684708 *
  15 H       2.9546638 *  4.1358593    1.7684584 *  1.7684708 *  0.0000000  

  * ... LESS THAN  3.000


     ATOMIC BASIS SET
     ----------------
 THE CONTRACTED PRIMITIVE FUNCTIONS HAVE BEEN UNNORMALIZED
 THE CONTRACTED BASIS FUNCTIONS ARE NOW NORMALIZED TO UNITY

  SHELL TYPE  PRIMITIVE        EXPONENT          CONTRACTION COEFFICIENT(S)

 LA        

      1   L       1             9.1730000   -0.054833023521   -0.009797991527
      1   L       2             3.1200000    0.676604290237    0.231261800020
      1   L       3             2.1040000   -1.034429443730   -0.601214480110
      1   L       4             1.3200000   -0.518907222591    0.195188831214
      1   L       5             0.4960000    1.631603699894    1.076136069429

      2   D       6             1.2380000   -0.053797021791
      2   D       7             0.6061000    0.380144153981
      2   D       8             0.2518000    0.720349291785

      3   D       9             0.0978700    1.000000000000

      4   L      10             0.6182000   -0.107095028128   -0.051868986063
      4   L      11             0.0454600    1.033448271434    1.008107729120

      5   L      12             0.0177500    1.000000000000    1.000000000000

      6   L      13             0.2004000    1.000000000000    1.000000000000

      7   D      14             0.0353600    1.000000000000

 P         

      8   S      15        312400.0000000    0.000057689641
      8   S      16         46800.0000000    0.000448246591
      8   S      17         10650.0000000    0.002349131061
      8   S      18          3018.0000000    0.009781571802
      8   S      19           986.8000000    0.034142936511
      8   S      20           357.4000000    0.100192955985
      8   S      21           139.6000000    0.234346168617
      8   S      22            57.6300000    0.382391849918
      8   S      23            24.6000000    0.318052941833
      8   S      24            10.1200000    0.070770999093
      8   S      25             4.2830000   -0.001817789630
      8   S      26             1.8050000    0.002161561737
      8   S      27             0.2782000    0.000432249354

      9   S      28        312400.0000000   -0.000016380204
      9   S      29         46800.0000000   -0.000127233535
      9   S      30         10650.0000000   -0.000668625166
      9   S      31          3018.0000000   -0.002795303744
      9   S      32           986.8000000   -0.009928227435
      9   S      33           357.4000000   -0.030244566456
      9   S      34           139.6000000   -0.077884705328
      9   S      35            57.6300000   -0.156724571545
      9   S      36            24.6000000   -0.198042753651
      9   S      37            10.1200000    0.037971251521
      9   S      38             4.2830000    0.552751544147
      9   S      39             1.8050000    0.542611452452
      9   S      40             0.2782000   -0.009675942874

     10   S      41        312400.0000000    0.000006865735
     10   S      42         46800.0000000    0.000053281983
     10   S      43         10650.0000000    0.000280421002
     10   S      44          3018.0000000    0.001170789768
     10   S      45           986.8000000    0.004173591138
     10   S      46           357.4000000    0.012720496749
     10   S      47           139.6000000    0.033152766352
     10   S      48            57.6300000    0.067671246836
     10   S      49            24.6000000    0.089831018862
     10   S      50            10.1200000   -0.020305232360
     10   S      51             4.2830000   -0.313280408979
     10   S      52             1.8050000   -0.563687905527
     10   S      53             0.2782000    1.117494073734

     11   S      54             0.6158000    1.000000000000

     12   S      55             0.1055000    1.000000000000

     13   P      56           504.9000000    0.002433660431
     13   P      57           119.4000000    0.019305559477
     13   P      58            37.9600000    0.088473106893
     13   P      59            13.9500000    0.254701981099
     13   P      60             5.4570000    0.440199242653
     13   P      61             2.1770000    0.383632006272
     13   P      62             0.2877000   -0.003946337074

     14   P      63           504.9000000   -0.000954298933
     14   P      64           119.4000000   -0.007664025747
     14   P      65            37.9600000   -0.035465925259
     14   P      66            13.9500000   -0.106164716437
     14   P      67             5.4570000   -0.187210586037
     14   P      68             2.1770000   -0.181495819791
     14   P      69             0.2877000    0.991672644618

     15   P      70             0.8010000    1.000000000000

     16   P      71             0.0971400    1.000000000000

     17   D      72             0.6480000    1.000000000000

     18   D      73             0.2180000    1.000000000000

     19   F      74             0.4520000    1.000000000000

     20   D      75             3.1200000    1.000000000000

 O         

     21   S      76         15330.0000000    0.000520198307
     21   S      77          2299.0000000    0.004023344781
     21   S      78           522.4000000    0.020729083329
     21   S      79           147.3000000    0.081082327080
     21   S      80            47.5500000    0.236226352118
     21   S      81            16.7600000    0.443518209420
     21   S      82             6.2070000    0.358670588689
     21   S      83             0.6882000   -0.008349797237

     22   S      84         15330.0000000   -0.000197236012
     22   S      85          2299.0000000   -0.001535010700
     22   S      86           522.4000000   -0.007951183914
     22   S      87           147.3000000   -0.032113452892
     22   S      88            47.5500000   -0.100269643049
     22   S      89            16.7600000   -0.234047111838
     22   S      90             6.2070000   -0.301410927756
     22   S      91             0.6882000    1.034919649508

     23   S      92             1.7520000    1.000000000000

     24   S      93             0.2384000    1.000000000000

     25   P      94            34.4600000    0.041163489568
     25   P      95             7.7490000    0.257762835858
     25   P      96             2.2800000    0.802419274427

     26   P      97             0.7156000    1.000000000000

     27   P      98             0.2140000    1.000000000000

     28   D      99             2.3140000    1.000000000000

     29   D     100             0.6450000    1.000000000000

     30   F     101             1.4280000    1.000000000000

 C         

     31   S     102          8236.0000000    0.000542430189
     31   S     103          1235.0000000    0.004196427901
     31   S     104           280.8000000    0.021540914108
     31   S     105            79.2700000    0.083614949614
     31   S     106            25.5900000    0.239871618922
     31   S     107             8.9970000    0.443751820060
     31   S     108             3.3190000    0.353579696469
     31   S     109             0.3643000   -0.009176366076

     32   S     110          8236.0000000   -0.000196392234
     32   S     111          1235.0000000   -0.001525950274
     32   S     112           280.8000000   -0.007890449028
     32   S     113            79.2700000   -0.031514870532
     32   S     114            25.5900000   -0.096910008320
     32   S     115             8.9970000   -0.220541526288
     32   S     116             3.3190000   -0.296069112937
     32   S     117             0.3643000    1.040503432950

     33   S     118             0.9059000    1.000000000000

     34   S     119             0.1285000    1.000000000000

     35   P     120            18.7100000    0.039426387165
     35   P     121             4.1330000    0.244088984924
     35   P     122             1.2000000    0.815492008943

     36   P     123             0.3827000    1.000000000000

     37   P     124             0.1209000    1.000000000000

     38   D     125             1.0970000    1.000000000000

     39   D     126             0.3180000    1.000000000000

     40   F     127             0.7610000    1.000000000000

 C         

     41   S     128          8236.0000000    0.000542430189
     41   S     129          1235.0000000    0.004196427901
     41   S     130           280.8000000    0.021540914108
     41   S     131            79.2700000    0.083614949614
     41   S     132            25.5900000    0.239871618922
     41   S     133             8.9970000    0.443751820060
     41   S     134             3.3190000    0.353579696469
     41   S     135             0.3643000   -0.009176366076

     42   S     136          8236.0000000   -0.000196392234
     42   S     137          1235.0000000   -0.001525950274
     42   S     138           280.8000000   -0.007890449028
     42   S     139            79.2700000   -0.031514870532
     42   S     140            25.5900000   -0.096910008320
     42   S     141             8.9970000   -0.220541526288
     42   S     142             3.3190000   -0.296069112937
     42   S     143             0.3643000    1.040503432950

     43   S     144             0.9059000    1.000000000000

     44   S     145             0.1285000    1.000000000000

     45   P     146            18.7100000    0.039426387165
     45   P     147             4.1330000    0.244088984924
     45   P     148             1.2000000    0.815492008943

     46   P     149             0.3827000    1.000000000000

     47   P     150             0.1209000    1.000000000000

     48   D     151             1.0970000    1.000000000000

     49   D     152             0.3180000    1.000000000000

     50   F     153             0.7610000    1.000000000000

 C         

     51   S     154          8236.0000000    0.000542430189
     51   S     155          1235.0000000    0.004196427901
     51   S     156           280.8000000    0.021540914108
     51   S     157            79.2700000    0.083614949614
     51   S     158            25.5900000    0.239871618922
     51   S     159             8.9970000    0.443751820060
     51   S     160             3.3190000    0.353579696469
     51   S     161             0.3643000   -0.009176366076

     52   S     162          8236.0000000   -0.000196392234
     52   S     163          1235.0000000   -0.001525950274
     52   S     164           280.8000000   -0.007890449028
     52   S     165            79.2700000   -0.031514870532
     52   S     166            25.5900000   -0.096910008320
     52   S     167             8.9970000   -0.220541526288
     52   S     168             3.3190000   -0.296069112937
     52   S     169             0.3643000    1.040503432950

     53   S     170             0.9059000    1.000000000000

     54   S     171             0.1285000    1.000000000000

     55   P     172            18.7100000    0.039426387165
     55   P     173             4.1330000    0.244088984924
     55   P     174             1.2000000    0.815492008943

     56   P     175             0.3827000    1.000000000000

     57   P     176             0.1209000    1.000000000000

     58   D     177             1.0970000    1.000000000000

     59   D     178             0.3180000    1.000000000000

     60   F     179             0.7610000    1.000000000000

 H         

     61   S     180            33.8700000    0.025494863235
     61   S     181             5.0950000    0.190362765893
     61   S     182             1.1590000    0.852162022245

     62   S     183             0.3258000    1.000000000000

     63   S     184             0.1027000    1.000000000000

     64   P     185             1.4070000    1.000000000000

     65   P     186             0.3880000    1.000000000000

     66   D     187             1.0570000    1.000000000000

 H         

     67   S     188            33.8700000    0.025494863235
     67   S     189             5.0950000    0.190362765893
     67   S     190             1.1590000    0.852162022245

     68   S     191             0.3258000    1.000000000000

     69   S     192             0.1027000    1.000000000000

     70   P     193             1.4070000    1.000000000000

     71   P     194             0.3880000    1.000000000000

     72   D     195             1.0570000    1.000000000000

 H         

     73   S     196            33.8700000    0.025494863235
     73   S     197             5.0950000    0.190362765893
     73   S     198             1.1590000    0.852162022245

     74   S     199             0.3258000    1.000000000000

     75   S     200             0.1027000    1.000000000000

     76   P     201             1.4070000    1.000000000000

     77   P     202             0.3880000    1.000000000000

     78   D     203             1.0570000    1.000000000000

 H         

     79   S     204            33.8700000    0.025494863235
     79   S     205             5.0950000    0.190362765893
     79   S     206             1.1590000    0.852162022245

     80   S     207             0.3258000    1.000000000000

     81   S     208             0.1027000    1.000000000000

     82   P     209             1.4070000    1.000000000000

     83   P     210             0.3880000    1.000000000000

     84   D     211             1.0570000    1.000000000000

 H         

     85   S     212            33.8700000    0.025494863235
     85   S     213             5.0950000    0.190362765893
     85   S     214             1.1590000    0.852162022245

     86   S     215             0.3258000    1.000000000000

     87   S     216             0.1027000    1.000000000000

     88   P     217             1.4070000    1.000000000000

     89   P     218             0.3880000    1.000000000000

     90   D     219             1.0570000    1.000000000000

 H         

     91   S     220            33.8700000    0.025494863235
     91   S     221             5.0950000    0.190362765893
     91   S     222             1.1590000    0.852162022245

     92   S     223             0.3258000    1.000000000000

     93   S     224             0.1027000    1.000000000000

     94   P     225             1.4070000    1.000000000000

     95   P     226             0.3880000    1.000000000000

     96   D     227             1.0570000    1.000000000000

 H         

     97   S     228            33.8700000    0.025494863235
     97   S     229             5.0950000    0.190362765893
     97   S     230             1.1590000    0.852162022245

     98   S     231             0.3258000    1.000000000000

     99   S     232             0.1027000    1.000000000000

    100   P     233             1.4070000    1.000000000000

    101   P     234             0.3880000    1.000000000000

    102   D     235             1.0570000    1.000000000000

 H         

    103   S     236            33.8700000    0.025494863235
    103   S     237             5.0950000    0.190362765893
    103   S     238             1.1590000    0.852162022245

    104   S     239             0.3258000    1.000000000000

    105   S     240             0.1027000    1.000000000000

    106   P     241             1.4070000    1.000000000000

    107   P     242             0.3880000    1.000000000000

    108   D     243             1.0570000    1.000000000000

 H         

    109   S     244            33.8700000    0.025494863235
    109   S     245             5.0950000    0.190362765893
    109   S     246             1.1590000    0.852162022245

    110   S     247             0.3258000    1.000000000000

    111   S     248             0.1027000    1.000000000000

    112   P     249             1.4070000    1.000000000000

    113   P     250             0.3880000    1.000000000000

    114   D     251             1.0570000    1.000000000000

 TOTAL NUMBER OF BASIS SET SHELLS             =  114
 NUMBER OF CARTESIAN GAUSSIAN BASIS FUNCTIONS =  354
 NOTE: THIS RUN WILL RESTRICT THE MO VARIATION SPACE TO SPHERICAL HARMONICS.
 THE NUMBER OF ORBITALS KEPT IN THE VARIATIONAL SPACE WILL BE PRINTED LATER.
 NUMBER OF ELECTRONS                          =  104
 CHARGE OF MOLECULE                           =    3
 SPIN MULTIPLICITY                            =    1
 NUMBER OF OCCUPIED ORBITALS (ALPHA)          =   52
 NUMBER OF OCCUPIED ORBITALS (BETA )          =   52
 TOTAL NUMBER OF ATOMS                        =   15
 THE NUCLEAR REPULSION ENERGY IS      663.2535207367
 NOTE THIS RUN IS USING CORE POTENTIALS, AND THE NUMBER OF ELECTRONS,
 OCCUPIED ORBITALS, AND NUCLEAR REPULSION ENERGY WILL BE ADJUSTED BELOW
 AFTER REMOVAL OF THE CORE CHARGES.

     $CONTRL OPTIONS
     ---------------
 SCFTYP=RHF          RUNTYP=OPTIMIZE     EXETYP=RUN     
 MPLEVL=       2     CITYP =NONE         CCTYP =NONE         VBTYP =NONE    
 DFTTYP=NONE         TDDFT =NONE    
 MULT  =       1     ICHARG=       3     NZVAR =      39     COORD =UNIQUE  
 PP    =READ         RELWFN=NONE         LOCAL =NONE         NUMGRD=       F
 ISPHER=       1     NOSYM =       0     MAXIT =     200     UNITS =ANGS    
 PLTORB=       F     MOLPLT=       F     AIMPAC=       F     FRIEND=        
 NPRINT=       7     IREST =       0     GEOM  =INPUT   
 NORMF =       0     NORMP =       0     ITOL  =      20     ICUT  =      11
 INTTYP=BEST         GRDTYP=BEST         QMTTOL= 1.0E-06

     $SYSTEM OPTIONS
     ---------------
  REPLICATED MEMORY=   300000000 WORDS (ON EVERY NODE).
 DISTRIBUTED MEMDDI=         300 MILLION WORDS IN AGGREGATE,
 MEMDDI DISTRIBUTED OVER  16 PROCESSORS IS    18750000 WORDS/PROCESSOR.
 TOTAL MEMORY REQUESTED ON EACH PROCESSOR=   318750000 WORDS.
 TIMLIM=      525600.00 MINUTES, OR     365.0 DAYS.
 PARALL= T  BALTYP=  DLB     KDIAG=    0  COREFL= F
 MXSEQ2=     300 MXSEQ3=     150  mem10=         0

          --------------
          ECP POTENTIALS
          --------------

 PARAMETERS FOR "LA-ECP  " ON ATOM    1 WITH ZCORE  46 AND LMAX  4 ARE
 FOR L= 4      COEFF    N           ZETA
    1       -2.85665    1        1.42345
 FOR L= 0      COEFF    N           ZETA
    1        8.85347    0       22.29739
    2      -68.41778    2        1.64320
    3      110.12463    2        1.85122
 FOR L= 1      COEFF    N           ZETA
    1        2.98675    0        1.77635
    2      -35.51815    2        3.98941
    3       53.65423    2        2.47524
 FOR L= 2      COEFF    N           ZETA
    1        1.67298    0        1.52169
    2       18.46625    2        1.52182
 FOR L= 3      COEFF    N           ZETA
    1       -4.64430    1        2.67762
    2      -14.43101    1       10.06608

 THE ECP RUN REMOVES   46 CORE ELECTRONS, AND THE SAME NUMBER OF PROTONS.
 NUMBER OF ELECTRONS KEPT IN THE CALCULATION IS =   58
 NUMBER OF OCCUPIED ORBITALS (ALPHA) KEPT IS    =   29
 NUMBER OF OCCUPIED ORBITALS (BETA ) KEPT IS    =   29
 THE ADJUSTED NUCLEAR REPULSION ENERGY=      334.9509477950
          ECP ANGULAR INTS.........     0.02 SECONDS

          ----------------
          PROPERTIES INPUT
          ----------------

     MOMENTS            FIELD           POTENTIAL          DENSITY
 IEMOM =       1   IEFLD =       0   IEPOT =       0   IEDEN =       0
 WHERE =COMASS     WHERE =NUCLEI     WHERE =NUCLEI     WHERE =NUCLEI  
 OUTPUT=BOTH       OUTPUT=BOTH       OUTPUT=BOTH       OUTPUT=BOTH    
 IEMINT=       0   IEFINT=       0                     IEDINT=       0
                                                       MORB  =       0
          EXTRAPOLATION IN EFFECT
          SOSCF IN EFFECT
 ORBITAL PRINTING OPTION: NPREO=     1   354     2     1

     -------------------------------
     INTEGRAL TRANSFORMATION OPTIONS
     -------------------------------
     NWORD  =            0
     CUTOFF = 1.0E-09     MPTRAN =       0
     DIRTRF =       T     AOINTS =DUP     

          ----------------------
          INTEGRAL INPUT OPTIONS
          ----------------------
 NOPK  =       1 NORDER=       0 SCHWRZ=       T

          -----------------------
          MP2 CONTROL INFORMATION
          -----------------------
          NACORE =       13  NBCORE =       13
          LMOMP2 =        F  AOINTS = DUP     
          METHOD =        2  NWORD  =               0
          MP2PRP =        F  OSPT   = NONE    
          CUTOFF = 1.00E-09  CPHFBS = BASISAO 
          CODE   = DDI     

          NUMBER OF CORE -A-  ORBITALS =    13
          NUMBER OF CORE -B-  ORBITALS =    13
          NUMBER OF OCC. -A-  ORBITALS =    29
          NUMBER OF OCC. -B-  ORBITALS =    29
          NUMBER OF MOLECULAR ORBITALS =   354
          NUMBER OF   BASIS  FUNCTIONS =   354

 
 
 -----------------------------------------------
  STATISTICS ON AUTOMATIC COORDINATE GENERATION 
 -----------------------------------------------
  NUMBER OF USER SPECIFIED BONDS                              0
  NUMBER OF BONDS                                            14
  NUMBER OF ANGLES                                           25
  NUMBER OF TORSIONS                                         30
  NUMBER OF EXTRA COORD.                                      0
  NUMBER OF EXTRA COORD. FOR CONSTRAINTS                      0
  NUMBER OF CONSTRAINED COORD.                                1
 
  TOTAL NUMBER OF PRIMITIVES                                 69
 -----------------------------------------------

   --- ENCODED Z MATRIX ---
 COORD  TYPE   I   J   K   L   M   N
    1      2    1   3   2
    2      1    1   3
    3      1    2   4
    4      1    2   3
    5      1    2   6
    6      1    2   5
    7      1    4   8
    8      1    4   7
    9      1    4   9
   10      1    5  12
   11      1    5  11
   12      1    5  10
   13      1    6  15
   14      1    6  14
   15      1    6  13
   16      2    2   5  11
   17      2    2   4   8
   18      2    2   6  13
   19      2    2   6  14
   20      2    2   4   9
   21      2    2   5  12
   22      2    2   5  10
   23      2    2   4   7
   24      2    2   6  15
   25      2    3   2   4
   26      2    3   2   5
   27      2    3   2   6
   28      2    4   2   6
   29      2    4   2   5
   30      2    5   2   6
   31      2    7   4   9
   32      2    7   4   8
   33      2    8   4   9
   34      2   10   5  11
   35      2   10   5  12
   36      2   11   5  12
   37      2   13   6  14
   38      2   13   6  15
   39      2   14   6  15
   40      3    1   3   2   5
   41      3    1   3   2   4
   42      3    1   3   2   6
   43      3    3   2   4   8
   44      3    3   2   6  15
   45      3    3   2   6  14
   46      3    3   2   4   7
   47      3    3   2   5  10
   48      3    3   2   6  13
   49      3    3   2   5  11
   50      3    3   2   5  12
   51      3    3   2   4   9
   52      3    4   2   6  15
   53      3    4   2   6  14
   54      3    4   2   5  10
   55      3    4   2   6  13
   56      3    4   2   5  12
   57      3    4   2   5  11
   58      3    5   2   6  15
   59      3    5   2   6  14
   60      3    5   2   4   7
   61      3    5   2   6  13
   62      3    5   2   4   9
   63      3    5   2   4   8
   64      3    6   2   4   7
   65      3    6   2   5  10
   66      3    6   2   5  11
   67      3    6   2   5  12
   68      3    6   2   4   9
   69      3    6   2   4   8

          INDEP./SYM. INTERNAL COORDINATES
          --------------------------------
 CRD  1=   1.0000 (  1)
 CRD  2=   0.1041 ( 16) -0.1339 ( 20) -0.1001 ( 22)  0.1300 ( 23) -0.1121 ( 24)
          -0.3000 ( 26)  0.3232 ( 27) -0.4179 ( 28)  0.4503 ( 29) -0.1371 ( 40)
           0.2207 ( 41) -0.1113 ( 42)  0.1189 ( 46)  0.1146 ( 51) -0.1360 ( 53)
          -0.1221 ( 56)  0.1613 ( 58)  0.1017 ( 59)  0.1612 ( 61)  0.1537 ( 65)
           0.1633 ( 66) -0.1030 ( 69)
 CRD  3=  -0.3348 (  3)  0.1501 (  5)  0.1877 (  6)  0.2262 ( 18) -0.1479 ( 19)
          -0.1249 ( 21)  0.2223 ( 22) -0.2347 ( 28) -0.1877 ( 29)  0.4181 ( 30)
           0.2325 ( 40) -0.2505 ( 42)  0.1750 ( 44) -0.1624 ( 49) -0.1245 ( 59)
          -0.1027 ( 60) -0.1219 ( 61) -0.1041 ( 62) -0.1092 ( 63)  0.1144 ( 64)
           0.1289 ( 65)  0.1319 ( 67)  0.1131 ( 68)  0.1079 ( 69)
 CRD  4=   0.3572 (  5) -0.3316 (  6)  0.2059 ( 19)  0.1451 ( 20) -0.2129 ( 21)
          -0.1653 ( 23) -0.2276 ( 26)  0.2453 ( 27)  0.1030 ( 28) -0.1110 ( 29)
           0.1075 ( 35) -0.1158 ( 37) -0.1799 ( 41)  0.2658 ( 43) -0.1171 ( 44)
          -0.1205 ( 45)  0.2072 ( 46) -0.1468 ( 49) -0.1414 ( 50)  0.2031 ( 51)
           0.1288 ( 54)  0.1178 ( 55) -0.1360 ( 60) -0.1401 ( 62) -0.1318 ( 64)
          -0.1359 ( 68)
 CRD  5=   0.3956 (  3)  0.4007 (  5)  0.4011 (  6)  0.2727 ( 16)  0.2725 ( 17)
           0.2726 ( 24) -0.1187 ( 32) -0.1187 ( 33) -0.1202 ( 34) -0.1200 ( 36)
          -0.1201 ( 38) -0.1199 ( 39)  0.1198 ( 54) -0.1199 ( 55)  0.1182 ( 59)
          -0.1195 ( 62)  0.1196 ( 64) -0.1182 ( 67)
 CRD  6=   0.1929 (  2)  0.2615 (  3)  0.3390 (  4)  0.2325 (  5)  0.2303 (  6)
          -0.2259 ( 16) -0.2282 ( 17)  0.2041 ( 18)  0.2010 ( 19)  0.2158 ( 20)
           0.2001 ( 21)  0.2030 ( 22)  0.2160 ( 23) -0.2261 ( 24) -0.1701 ( 31)
          -0.1581 ( 35) -0.1589 ( 37) -0.1316 ( 54)  0.1319 ( 55) -0.1228 ( 59)
           0.1275 ( 62) -0.1282 ( 64)  0.1231 ( 67)
 CRD  7=   0.3584 (  3) -0.1660 (  5) -0.2066 (  6) -0.1424 ( 16)  0.2925 ( 17)
           0.3434 ( 18) -0.3888 ( 19) -0.3661 ( 21)  0.3133 ( 22) -0.1110 ( 24)
          -0.1548 ( 32) -0.1365 ( 33)  0.1963 ( 36)  0.1893 ( 39)
 CRD  8=   0.2832 (  5) -0.2628 (  6)  0.1062 (  8) -0.1052 (  9) -0.2938 ( 16)
           0.1553 ( 18) -0.1974 ( 19) -0.3988 ( 20)  0.2406 ( 21) -0.2016 ( 22)
           0.4018 ( 23)  0.3167 ( 24) -0.1308 ( 32)  0.1495 ( 33)  0.1978 ( 34)
          -0.1914 ( 38)
 CRD  9=   0.1186 (  3)  0.3243 ( 16) -0.4842 ( 17) -0.2355 ( 19)  0.2767 ( 20)
          -0.2636 ( 21) -0.1121 ( 22)  0.2885 ( 23)  0.2661 ( 24) -0.2330 ( 31)
           0.1590 ( 35)  0.1308 ( 37)  0.1080 ( 53) -0.1112 ( 56)
 CRD 10=   0.3635 ( 18) -0.3754 ( 19)  0.3737 ( 20)  0.3746 ( 21) -0.3637 ( 22)
          -0.3728 ( 23)  0.1319 ( 32) -0.1317 ( 33)  0.1315 ( 34) -0.1287 ( 36)
          -0.1317 ( 38)  0.1287 ( 39)
 CRD 11=  -0.1178 ( 11)  0.1051 ( 12)  0.1269 ( 13) -0.1016 ( 15) -0.4226 ( 16)
          -0.3347 ( 18) -0.1268 ( 19)  0.2263 ( 20)  0.3424 ( 22) -0.1931 ( 23)
           0.4554 ( 24) -0.1935 ( 35)  0.1353 ( 36)  0.2085 ( 37) -0.1326 ( 39)
 CRD 12=   0.4066 (  2)  0.6486 (  4)  0.1283 (  7)  0.1703 ( 16)  0.3123 ( 17)
          -0.1543 ( 18) -0.1418 ( 20) -0.1465 ( 22) -0.1499 ( 23)  0.1805 ( 24)
           0.1494 ( 31)  0.1004 ( 37)
 CRD 13=   0.2111 (  3) -0.1255 (  4) -0.1173 (  6)  0.1196 (  7)  0.1054 ( 10)
           0.1019 ( 14) -0.1344 ( 16)  0.1468 ( 17) -0.1627 ( 18)  0.1542 ( 19)
           0.1380 ( 21) -0.1561 ( 22) -0.1142 ( 24)  0.2656 ( 25) -0.1606 ( 26)
          -0.1300 ( 27) -0.1672 ( 28) -0.1321 ( 29)  0.3213 ( 30) -0.1164 ( 32)
          -0.1277 ( 33)  0.1571 ( 34)  0.1480 ( 38)  0.1082 ( 40) -0.1166 ( 42)
           0.1839 ( 52)  0.1877 ( 53) -0.1577 ( 54)  0.1623 ( 55) -0.1894 ( 56)
          -0.1817 ( 57)  0.1327 ( 58)  0.1365 ( 59) -0.1327 ( 60)  0.1111 ( 61)
          -0.1055 ( 63) -0.1120 ( 66) -0.1197 ( 67)  0.1112 ( 68)
 CRD 14=  -0.2082 ( 43) -0.2101 ( 44) -0.1813 ( 45) -0.1796 ( 46) -0.1816 ( 47)
          -0.1815 ( 48) -0.2103 ( 49) -0.1815 ( 50) -0.1796 ( 51) -0.2099 ( 52)
          -0.1811 ( 53) -0.1814 ( 54) -0.1813 ( 55) -0.1813 ( 56) -0.2100 ( 57)
          -0.2100 ( 58) -0.1813 ( 59) -0.1799 ( 60) -0.1815 ( 61) -0.1799 ( 62)
          -0.2085 ( 63) -0.1799 ( 64) -0.1816 ( 65) -0.2102 ( 66) -0.1814 ( 67)
          -0.1799 ( 68) -0.2085 ( 69)
 CRD 15=  -0.1947 ( 10) -0.1475 ( 12)  0.2036 ( 14)  0.1651 ( 15)  0.1018 ( 39)
           0.2925 ( 43) -0.1282 ( 44) -0.1034 ( 45)  0.2765 ( 46) -0.1715 ( 47)
          -0.1418 ( 48) -0.1608 ( 49) -0.1358 ( 50)  0.2792 ( 51) -0.1248 ( 54)
          -0.1019 ( 55) -0.1142 ( 57) -0.1090 ( 58)  0.2091 ( 60) -0.1226 ( 61)
           0.2119 ( 62)  0.2252 ( 63)  0.2106 ( 64) -0.1441 ( 65) -0.1334 ( 66)
          -0.1084 ( 67)  0.2134 ( 68)  0.2267 ( 69)
 CRD 16=  -0.4267 (  7) -0.3593 (  8) -0.3529 (  9)  0.2415 ( 10)  0.2381 ( 11)
           0.1582 ( 12)  0.1907 ( 13)  0.2050 ( 14)  0.1153 ( 15)  0.1319 ( 17)
          -0.1142 ( 18)  0.1757 ( 20) -0.1308 ( 22)  0.1705 ( 23) -0.2021 ( 31)
          -0.1393 ( 32) -0.1422 ( 33)  0.1127 ( 35)
 CRD 17=  -0.2449 ( 10) -0.3599 ( 11) -0.3097 ( 12)  0.3875 ( 13)  0.2726 ( 14)
           0.3246 ( 15)  0.1025 ( 16) -0.1332 ( 18) -0.1682 ( 19)  0.1618 ( 21)
           0.1181 ( 22) -0.1104 ( 24) -0.1660 ( 35) -0.1219 ( 36)  0.1787 ( 37)
           0.1096 ( 38)  0.1280 ( 39) -0.1135 ( 60) -0.1141 ( 62) -0.1104 ( 63)
          -0.1122 ( 64) -0.1129 ( 68) -0.1091 ( 69)
 CRD 18=  -0.1007 (  3) -0.2674 (  7) -0.3060 (  8) -0.3061 (  9) -0.3021 ( 10)
          -0.2652 ( 11) -0.3014 ( 12) -0.2654 ( 13) -0.3024 ( 14) -0.3017 ( 15)
           0.1123 ( 16)  0.1138 ( 17)  0.1012 ( 18)  0.1012 ( 19)  0.1023 ( 20)
           0.1012 ( 21)  0.1011 ( 22)  0.1023 ( 23)  0.1125 ( 24) -0.1091 ( 31)
          -0.1066 ( 32) -0.1066 ( 33) -0.1052 ( 34) -0.1080 ( 35) -0.1053 ( 36)
          -0.1081 ( 37) -0.1053 ( 38) -0.1054 ( 39)
 CRD 19=  -0.2081 (  3)  0.1197 (  6) -0.2450 (  8) -0.2662 (  9)  0.2783 ( 12)
           0.2604 ( 15) -0.1309 ( 25)  0.1092 ( 28) -0.2035 ( 30)  0.2036 ( 44)
           0.1897 ( 45) -0.1923 ( 47)  0.2048 ( 48) -0.1890 ( 49) -0.1738 ( 50)
           0.1412 ( 52)  0.1273 ( 53) -0.1270 ( 54)  0.1424 ( 55) -0.1085 ( 56)
          -0.1237 ( 57)  0.1805 ( 58)  0.1666 ( 59)  0.1817 ( 61) -0.1782 ( 65)
          -0.1749 ( 66) -0.1597 ( 67)
 CRD 20=   0.1529 (  8) -0.1824 (  9)  0.4099 ( 11) -0.2927 ( 12) -0.4419 ( 13)
           0.1293 ( 14)  0.2889 ( 15)  0.1018 ( 32) -0.2062 ( 35)  0.1616 ( 36)
           0.2223 ( 37) -0.1594 ( 39) -0.1268 ( 45)  0.1041 ( 47)  0.1142 ( 48)
          -0.1195 ( 50) -0.1302 ( 53)  0.1016 ( 54)  0.1109 ( 55) -0.1220 ( 56)
          -0.1193 ( 59)  0.1217 ( 61)  0.1117 ( 65) -0.1118 ( 67)
 CRD 21=   0.4425 (  7) -0.2003 (  8) -0.1693 (  9)  0.3164 ( 10) -0.2781 ( 11)
          -0.2268 ( 13)  0.3101 ( 14) -0.1194 ( 15) -0.2294 ( 31)  0.1024 ( 32)
           0.1179 ( 33) -0.1687 ( 34)  0.1425 ( 35)  0.1160 ( 37) -0.1635 ( 38)
          -0.1060 ( 44)  0.1180 ( 46) -0.1196 ( 51) -0.1079 ( 52)  0.1004 ( 57)
          -0.1083 ( 58)  0.1189 ( 60) -0.1187 ( 62)  0.1175 ( 64)  0.1006 ( 66)
          -0.1202 ( 68)
 CRD 22=  -0.4053 (  7)  0.1828 (  8)  0.1811 (  9)  0.1557 ( 10) -0.3701 ( 11)
           0.1809 ( 12) -0.3720 ( 13)  0.1556 ( 14)  0.1823 ( 15)  0.2040 ( 31)
          -0.1022 ( 32) -0.1030 ( 33)  0.1855 ( 35) -0.1003 ( 36)  0.1865 ( 37)
          -0.1011 ( 39) -0.1018 ( 45) -0.1101 ( 46) -0.1002 ( 47)  0.1007 ( 48)
           0.1013 ( 50)  0.1101 ( 51) -0.1152 ( 54)  0.1156 ( 55) -0.1169 ( 59)
           0.1254 ( 62) -0.1253 ( 64)  0.1164 ( 67)
 CRD 23=  -0.3251 (  8)  0.3254 (  9)  0.3161 ( 10) -0.3149 ( 12) -0.3171 ( 14)
           0.3157 ( 15) -0.1749 ( 32)  0.1747 ( 33) -0.1708 ( 34)  0.1696 ( 36)
           0.1713 ( 38) -0.1699 ( 39)  0.1268 ( 43)  0.1227 ( 44)  0.1223 ( 49)
           0.1227 ( 52)  0.1223 ( 57)  0.1227 ( 58)  0.1268 ( 63)  0.1223 ( 66)
           0.1267 ( 69)
 CRD 24=   0.4066 (  8) -0.3947 (  9)  0.3045 ( 10) -0.1526 ( 11) -0.1500 ( 12)
           0.1644 ( 13) -0.2653 ( 14)  0.2232 ( 32) -0.2306 ( 33) -0.1770 ( 34)
           0.1552 ( 38) -0.1299 ( 43)  0.1088 ( 46) -0.1136 ( 47) -0.1048 ( 48)
           0.1166 ( 51) -0.1255 ( 54) -0.1156 ( 55)  0.1221 ( 60) -0.1055 ( 61)
           0.1299 ( 62) -0.1165 ( 63)  0.1214 ( 64) -0.1161 ( 65)  0.1291 ( 68)
          -0.1173 ( 69)
 CRD 25=   0.2521 (  7) -0.2470 ( 10) -0.1394 ( 11)  0.3303 ( 12) -0.1113 ( 13)
          -0.2780 ( 14)  0.3442 ( 15) -0.1607 ( 31)  0.1520 ( 34) -0.2232 ( 36)
           0.1739 ( 38) -0.2304 ( 39) -0.1587 ( 45)  0.1583 ( 50) -0.1644 ( 53)
           0.1611 ( 56) -0.1780 ( 59) -0.1116 ( 61)  0.1059 ( 64)  0.1786 ( 67)
 CRD 26=  -0.2218 (  5)  0.2059 (  6)  0.1662 (  8) -0.1347 (  9)  0.2852 ( 10)
           0.1055 ( 11)  0.1217 ( 12) -0.1136 ( 13) -0.2843 ( 14) -0.1542 ( 15)
          -0.2160 ( 19) -0.1193 ( 20)  0.2192 ( 21)  0.1421 ( 23) -0.1083 ( 26)
           0.1167 ( 27)  0.1559 ( 28) -0.1679 ( 29) -0.1283 ( 32)  0.1130 ( 33)
          -0.1894 ( 35) -0.1629 ( 36)  0.2041 ( 37)  0.1573 ( 39) -0.1887 ( 41)
           0.1774 ( 43)  0.1044 ( 46)  0.1021 ( 51)  0.1199 ( 54)  0.1112 ( 55)
          -0.1196 ( 60) -0.1219 ( 62) -0.1132 ( 64) -0.1156 ( 68)
 CRD 27=   0.7433 (  2) -0.1972 (  7) -0.1778 ( 11) -0.1792 ( 13) -0.1076 ( 16)
          -0.1356 ( 17) -0.1096 ( 24)  0.1202 ( 32)  0.1214 ( 33)  0.1044 ( 36)
           0.1068 ( 39)  0.1325 ( 54) -0.1316 ( 55)  0.1477 ( 59) -0.1357 ( 62)
           0.1345 ( 64) -0.1474 ( 67)
 CRD 28=  -0.1084 (  3)  0.1098 (  7)  0.2243 (  8)  0.2362 (  9) -0.2060 ( 12)
          -0.1861 ( 15) -0.1295 ( 16)  0.1969 ( 17) -0.1452 ( 18)  0.1871 ( 20)
          -0.1619 ( 22)  0.1787 ( 23) -0.1060 ( 24) -0.2798 ( 25)  0.1467 ( 26)
           0.1160 ( 27) -0.2471 ( 31) -0.1541 ( 32) -0.1641 ( 33)  0.1718 ( 34)
           0.1317 ( 35)  0.1044 ( 37)  0.1576 ( 38)  0.2381 ( 44)  0.1829 ( 45)
          -0.1795 ( 47)  0.1907 ( 48) -0.2210 ( 49) -0.1672 ( 50)
 CRD 29=  -0.3623 (  2)  0.2453 (  3)  0.3350 (  4)  0.2343 (  5)  0.2334 (  6)
          -0.1786 (  7) -0.1235 (  8) -0.1236 (  9) -0.1172 ( 10) -0.1735 ( 11)
          -0.1161 ( 12) -0.1739 ( 13) -0.1177 ( 14) -0.1166 ( 15) -0.1552 ( 16)
          -0.1625 ( 17) -0.1367 ( 18) -0.1371 ( 19) -0.1428 ( 20) -0.1366 ( 21)
          -0.1363 ( 22) -0.1428 ( 23) -0.1557 ( 24)  0.1256 ( 31)  0.1651 ( 32)
           0.1652 ( 33)  0.1583 ( 34)  0.1180 ( 35)  0.1593 ( 36)  0.1185 ( 37)
           0.1587 ( 38)  0.1597 ( 39)
 CRD 30=  -0.4939 (  5)  0.4582 (  6)  0.1018 (  8) -0.1211 (  9) -0.1608 ( 11)
          -0.1827 ( 12)  0.1732 ( 13)  0.1804 ( 15) -0.1541 ( 16)  0.1731 ( 18)
           0.1528 ( 19) -0.1387 ( 21) -0.1636 ( 22)  0.1661 ( 24)  0.2057 ( 34)
           0.1397 ( 35)  0.1188 ( 36) -0.1507 ( 37) -0.2091 ( 38) -0.1406 ( 39)
           0.1112 ( 43)
 CRD 31=   0.3138 (  2)  0.1997 (  3) -0.5036 (  4)  0.2120 (  5)  0.2133 (  6)
           0.1277 (  7) -0.1428 (  8) -0.1431 (  9) -0.1479 ( 10)  0.1228 ( 11)
          -0.1450 ( 12)  0.1233 ( 13) -0.1477 ( 14) -0.1445 ( 15)  0.2073 ( 31)
           0.2114 ( 35)  0.2110 ( 37) -0.1319 ( 54)  0.1320 ( 55) -0.1301 ( 59)
           0.1316 ( 62) -0.1318 ( 64)  0.1301 ( 67)
 CRD 32=  -0.4780 (  3)  0.2099 (  5)  0.2632 (  6)  0.1758 (  7) -0.1978 ( 10)
          -0.1005 ( 11)  0.1200 ( 12) -0.2020 ( 14)  0.1404 ( 15)  0.1326 ( 20)
           0.1340 ( 23)  0.1829 ( 25) -0.1025 ( 26) -0.1562 ( 32) -0.1371 ( 33)
           0.2058 ( 36)  0.1989 ( 39) -0.2431 ( 44)  0.1091 ( 47) -0.1102 ( 48)
           0.2256 ( 49)
 CRD 33=   0.2223 (  8) -0.2223 (  9) -0.2372 ( 10)  0.2370 ( 12)  0.2361 ( 14)
          -0.2360 ( 15) -0.1694 ( 32)  0.1693 ( 33) -0.1814 ( 34)  0.1796 ( 36)
           0.1807 ( 38) -0.1787 ( 39)  0.1421 ( 43)  0.1559 ( 44) -0.1122 ( 45)
          -0.1117 ( 46) -0.1136 ( 47) -0.1135 ( 48)  0.1569 ( 49) -0.1124 ( 50)
          -0.1117 ( 51)  0.1559 ( 52) -0.1122 ( 53) -0.1138 ( 54) -0.1135 ( 55)
          -0.1125 ( 56)  0.1567 ( 57)  0.1545 ( 58) -0.1136 ( 59) -0.1103 ( 60)
          -0.1149 ( 61) -0.1102 ( 62)  0.1436 ( 63) -0.1102 ( 64) -0.1151 ( 65)
           0.1554 ( 66) -0.1139 ( 67) -0.1101 ( 68)  0.1437 ( 69)
 CRD 34=   0.1897 (  8) -0.2056 (  9)  0.2367 ( 11) -0.2068 ( 12) -0.2551 ( 13)
           0.1930 ( 15) -0.1173 ( 28)  0.1264 ( 29) -0.1573 ( 32)  0.1416 ( 33)
           0.1672 ( 35) -0.1796 ( 36) -0.1803 ( 37)  0.1709 ( 39)  0.1192 ( 43)
           0.2021 ( 45) -0.1237 ( 46) -0.1070 ( 48)  0.2034 ( 50) -0.1013 ( 51)
           0.1679 ( 53) -0.1153 ( 54) -0.1412 ( 55)  0.1714 ( 56)  0.2347 ( 59)
          -0.1195 ( 60)  0.1234 ( 63) -0.1243 ( 64)  0.2333 ( 67) -0.1019 ( 68)
           0.1186 ( 69)
 CRD 35=  -0.3216 (  7)  0.1499 (  8)  0.1310 (  9) -0.1991 ( 10)  0.1789 ( 11)
           0.1427 ( 13) -0.1927 ( 14)  0.1135 ( 17)  0.1097 ( 30) -0.2282 ( 31)
           0.1279 ( 32)  0.1421 ( 33) -0.1663 ( 34)  0.1270 ( 35)  0.1013 ( 37)
          -0.1582 ( 38)  0.1891 ( 46) -0.1945 ( 47)  0.1791 ( 48) -0.2025 ( 51)
          -0.2124 ( 54)  0.1939 ( 55)  0.1600 ( 60)  0.1681 ( 61) -0.2315 ( 62)
           0.2179 ( 64) -0.1801 ( 65) -0.1737 ( 68)
 CRD 36=  -0.1397 (  5)  0.1297 (  6) -0.2221 (  8)  0.2075 (  9) -0.2064 ( 10)
           0.1658 ( 11) -0.1787 ( 13)  0.1902 ( 14) -0.1237 ( 20)  0.1270 ( 23)
           0.1051 ( 28) -0.1133 ( 29)  0.1562 ( 32) -0.1651 ( 33) -0.1410 ( 34)
           0.1479 ( 35) -0.1594 ( 37)  0.1279 ( 38) -0.1283 ( 41) -0.1283 ( 43)
           0.1241 ( 46) -0.1827 ( 47) -0.1768 ( 48)  0.1416 ( 51)  0.1479 ( 52)
           0.1610 ( 53)  0.1520 ( 56)  0.1763 ( 57)  0.1012 ( 59) -0.1413 ( 61)
          -0.2780 ( 63) -0.1285 ( 65)  0.1208 ( 66) -0.2737 ( 69)
 CRD 37=   0.2524 (  3) -0.1119 (  5) -0.1401 (  6)  0.1173 (  7) -0.1179 ( 10)
           0.2128 ( 12) -0.1403 ( 14)  0.2160 ( 15) -0.1363 ( 18)  0.1356 ( 19)
           0.1257 ( 21) -0.1267 ( 22) -0.1878 ( 25)  0.1046 ( 26)  0.1110 ( 30)
           0.1359 ( 31) -0.1035 ( 34)  0.1388 ( 36) -0.1165 ( 38)  0.1447 ( 39)
           0.1080 ( 40) -0.1164 ( 42)  0.2407 ( 45) -0.1040 ( 46) -0.1371 ( 47)
           0.1616 ( 48) -0.2363 ( 50) -0.2380 ( 52)  0.2166 ( 57) -0.2643 ( 58)
          -0.1172 ( 60)  0.2495 ( 66)  0.1201 ( 68)
 CRD 38=   0.2536 (  4)  0.1604 (  7)  0.1604 ( 11)  0.1604 ( 13) -0.1235 ( 16)
          -0.1234 ( 17) -0.1235 ( 24) -0.1060 ( 25) -0.1058 ( 26) -0.1058 ( 27)
           0.1081 ( 31)  0.1081 ( 35)  0.1081 ( 37) -0.1196 ( 45) -0.1195 ( 46)
          -0.1196 ( 47)  0.1195 ( 48)  0.1196 ( 50)  0.1195 ( 51) -0.1421 ( 52)
          -0.2617 ( 53)  0.2617 ( 56)  0.1422 ( 57)  0.1421 ( 58) -0.2615 ( 60)
           0.2616 ( 61) -0.1420 ( 63) -0.2617 ( 65) -0.1421 ( 66)  0.2615 ( 68)
           0.1420 ( 69)
 CRD 39=   0.5839 ( 40)  0.5606 ( 41)  0.5822 ( 42)

 THE DETERMINANT OF THE G MATRIX IS 10**(   -17)


                     --------------------
                     INTERNAL COORDINATES
                     --------------------

                 - - ATOMS - -         COORDINATE      COORDINATE
 NO.   TYPE    I  J  K  L  M  N        (BOHR,RAD)       (ANG,DEG)
 ----------------------------------------------------------------
   1 BEND      1  3  2                  3.0717795     176.0000000
   2 STRETCH   1  3                     3.9655853       2.0984975
   3 STRETCH   2  4                     3.3484320       1.7719140
   4 STRETCH   2  3                     3.2154201       1.7015272
   5 STRETCH   2  6                     3.3484566       1.7719271
   6 STRETCH   2  5                     3.3484461       1.7719215
   7 STRETCH   4  8                     2.0698887       1.0953380
   8 STRETCH   4  7                     2.0585963       1.0893623
   9 STRETCH   4  9                     2.0585769       1.0893521
  10 STRETCH   5 12                     2.0585887       1.0893583
  11 STRETCH   5 11                     2.0699049       1.0953466
  12 STRETCH   5 10                     2.0585850       1.0893563
  13 STRETCH   6 15                     2.0699113       1.0953500
  14 STRETCH   6 14                     2.0585734       1.0893502
  15 STRETCH   6 13                     2.0585905       1.0893593
  16 BEND      2  5 11                  1.8617257     106.6690242
  17 BEND      2  4  8                  1.8617503     106.6704366
  18 BEND      2  6 13                  1.9422064     111.2802298
  19 BEND      2  6 14                  1.9421731     111.2783195
  20 BEND      2  4  9                  1.9421657     111.2778965
  21 BEND      2  5 12                  1.9421929     111.2794586
  22 BEND      2  5 10                  1.9422210     111.2810643
  23 BEND      2  4  7                  1.9421835     111.2789153
  24 BEND      2  6 15                  1.8617547     106.6706876
  25 BEND      3  2  4                  1.8566295     106.3770343
  26 BEND      3  2  5                  1.8564257     106.3653596
  27 BEND      3  2  6                  1.8563668     106.3619840
  28 BEND      4  2  6                  1.9615455     112.3882757
  29 BEND      4  2  5                  1.9615420     112.3880789
  30 BEND      5  2  6                  1.9615340     112.3876199
  31 BEND      7  4  9                  1.9411093     111.2173696
  32 BEND      7  4  8                  1.8865465     108.0911531
  33 BEND      8  4  9                  1.8865760     108.0928403
  34 BEND     10  5 11                  1.8865249     108.0899157
  35 BEND     10  5 12                  1.9411462     111.2194854
  36 BEND     11  5 12                  1.8865127     108.0892176
  37 BEND     13  6 14                  1.9411688     111.2207796
  38 BEND     13  6 15                  1.8864953     108.0882171
  39 BEND     14  6 15                  1.8865259     108.0899695
  40 TORSION   1  3  2  5               0.9826059      56.2991703
  41 TORSION   1  3  2  4               3.0770573     176.3023961
  42 TORSION   1  3  2  6              -1.1117026     -63.6958676
  43 TORSION   3  2  4  8               3.1415018     179.9947971
  44 TORSION   3  2  6 15               3.1414176     179.9899701
  45 TORSION   3  2  6 14              -1.0879358     -62.3341312
  46 TORSION   3  2  4  7              -1.0878237     -62.3277076
  47 TORSION   3  2  5 10              -1.0876530     -62.3179262
  48 TORSION   3  2  6 13               1.0876044      62.3151424
  49 TORSION   3  2  5 11              -3.1414924    -179.9942563
  50 TORSION   3  2  5 12               1.0878833      62.3311241
  51 TORSION   3  2  4  9               1.0876163      62.3158257
  52 TORSION   4  2  6 15              -1.1167595     -63.9856053
  53 TORSION   4  2  6 14               0.9370724      53.6902935
  54 TORSION   4  2  5 10              -3.1126949    -178.3442782
  55 TORSION   4  2  6 13               3.1126126     178.3395670
  56 TORSION   4  2  5 12              -0.9371585     -53.6952280
  57 TORSION   4  2  5 11               1.1166510      63.9793917
  58 TORSION   5  2  6 15               1.1166606      63.9799412
  59 TORSION   5  2  6 14              -3.1126928    -178.3441601
  60 TORSION   5  2  4  7               0.9370955      53.6916197
  61 TORSION   5  2  6 13              -0.9371526     -53.6948865
  62 TORSION   5  2  4  9               3.1125356     178.3351530
  63 TORSION   5  2  4  8              -1.1167642     -63.9858756
  64 TORSION   6  2  4  7              -3.1126739    -178.3430761
  65 TORSION   6  2  5 10               0.9370685      53.6900713
  66 TORSION   6  2  5 11              -1.1167709     -63.9862587
  67 TORSION   6  2  5 12               3.1126049     178.3391216
  68 TORSION   6  2  4  9              -0.9372338     -53.6995428
  69 TORSION   6  2  4  8               1.1166517      63.9794286

     ------------------------------------------
     THE POINT GROUP IS C1 , NAXIS= 0, ORDER= 1
     ------------------------------------------

 -- VARIATIONAL SPACE WILL BE RESTRICTED TO PURE SPHERICAL HARMONICS ONLY --
 AFTER EXCLUDING CONTAMINANT COMBINATIONS FROM THE CARTESIAN GAUSSIAN BASIS
 SET, THE NUMBER OF SPHERICAL HARMONICS KEPT IN THE VARIATION SPACE IS  316

     DIMENSIONS OF THE SYMMETRY SUBSPACES ARE
 A   =  316

 ..... DONE SETTING UP THE RUN .....
 CPU     0: STEP CPU TIME=     0.09 TOTAL CPU TIME=        0.1 (    0.0 MIN)
 TOTAL WALL CLOCK TIME=        0.1 SECONDS, CPU UTILIZATION IS  64.29%


          -----------------------------
          STATIONARY POINT LOCATION RUN
          -----------------------------


           ** GEOMETRY CONSTRAINTS ARE BEING APPLIED. **

          TRANSFORMING DISPLACEMENT FROM INTERNALS TO CARTESIANS
          THE ROOT MEAN SQUARE ERROR IN ITERATION   1 IS   0.00000000
 WARNING! THE RADIUS IN CARTESIANS IS    0.00000
 OBTAINING INITIAL HESSIAN, HESS=GUESS   
 DIAGONAL GUESS HESSIAN IN INTERNAL COORDS IS
     1  0.3179     2  0.5872     3  0.4357     4  0.4035     5  0.4357
     6  0.4357     7  0.3428     8  0.3468     9  0.3468    10  0.3468
    11  0.3428    12  0.3468    13  0.3428    14  0.3468    15  0.3468
    16  0.2410    17  0.2410    18  0.2414    19  0.2414    20  0.2414
    21  0.2414    22  0.2414    23  0.2414    24  0.2410    25  0.2834
    26  0.2834    27  0.2834    28  0.2919    29  0.2919    30  0.2919
    31  0.2035    32  0.2032    33  0.2032    34  0.2032    35  0.2035
    36  0.2032    37  0.2035    38  0.2032    39  0.2032    40  0.2500
    41  0.2500    42  0.2500    43  0.2500    44  0.2500    45  0.2500
    46  0.2500    47  0.2500    48  0.2500    49  0.2500    50  0.2500
    51  0.2500    52  0.2500    53  0.2500    54  0.2500    55  0.2500
    56  0.2500    57  0.2500    58  0.2500    59  0.2500    60  0.2500
    61  0.2500    62  0.2500    63  0.2500    64  0.2500    65  0.2500
    66  0.2500    67  0.2500    68  0.2500    69  0.2500
 TRANSFORMING HESSIAN TO SYMMETRY COORDINATES

          PARAMETERS CONTROLLING GEOMETRY SEARCH ARE
          METHOD =QA                  UPHESS =BFGS    
          NNEG   =         0          NFRZ   =         0
          NSTEP  =        50          IFOLOW =         1
          HESS   =GUESS               RESTAR =         F
          IHREP  =         0          HSSEND =         F
          NPRT   =         0          NPUN   =         0
          OPTTOL = 1.000E-04          RMIN   = 1.500E-03
          RMAX   = 1.000E-01          RLIM   = 7.000E-02
          DXMAX  = 3.000E-01          PURIFY =         F
          MOVIE  =         F          TRUPD  =         T
          TRMAX  = 5.000E-01          TRMIN  = 5.000E-02
          ITBMAT =         5          STPT   =         F
          STSTEP = 1.000E-02          PROJCT=          T

 BEGINNING GEOMETRY SEARCH POINT NSERCH=   0 ...

 COORDINATES OF ALL ATOMS ARE (ANGS)
   ATOM   CHARGE       X              Y              Z
 ------------------------------------------------------------
 LA         57.0   0.3143500000   0.8802800000  -4.0288700000
 P          15.0  -0.3318071742   0.4444791496  -0.3119693964
 O           8.0  -0.1001300000   0.6702700000  -1.9824600000
 C           6.0  -1.8510774384   1.2597840203   0.0964117815
 C           6.0   1.0661047329   1.1809674797   0.4899863481
 C           6.0  -0.4142267727  -1.3062758190  -0.0516051846
 H           1.0  -1.7900004275   2.3299846536  -0.0976254589
 H           1.0  -2.0050510355   1.1172639936   1.1714678206
 H           1.0  -2.6938183086   0.8114201956  -0.4284173823
 H           1.0   1.9927514492   0.6847296607   0.2040299082
 H           1.0   0.9220229513   1.0382675457   1.5663976798
 H           1.0   1.1154830039   2.2514709813   0.2943193972
 H           1.0   0.5183363777  -1.7925353302  -0.3354735914
 H           1.0  -1.2627962501  -1.7443745643  -0.5757075169
 H           1.0  -0.5632338818  -1.4574776802   1.0229767804


                     --------------------
                     INTERNAL COORDINATES
                     --------------------

                 - - ATOMS - -         COORDINATE      COORDINATE
 NO.   TYPE    I  J  K  L  M  N        (BOHR,RAD)       (ANG,DEG)
 ----------------------------------------------------------------
   1 BEND      1  3  2                  3.0717795     176.0000000
   2 STRETCH   1  3                     3.9655853       2.0984975
   3 STRETCH   2  4                     3.3484320       1.7719140
   4 STRETCH   2  3                     3.2154201       1.7015272
   5 STRETCH   2  6                     3.3484566       1.7719271
   6 STRETCH   2  5                     3.3484461       1.7719215
   7 STRETCH   4  8                     2.0698887       1.0953380
   8 STRETCH   4  7                     2.0585963       1.0893623
   9 STRETCH   4  9                     2.0585769       1.0893521
  10 STRETCH   5 12                     2.0585887       1.0893583
  11 STRETCH   5 11                     2.0699049       1.0953466
  12 STRETCH   5 10                     2.0585850       1.0893563
  13 STRETCH   6 15                     2.0699113       1.0953500
  14 STRETCH   6 14                     2.0585734       1.0893502
  15 STRETCH   6 13                     2.0585905       1.0893593
  16 BEND      2  5 11                  1.8617257     106.6690242
  17 BEND      2  4  8                  1.8617503     106.6704366
  18 BEND      2  6 13                  1.9422064     111.2802298
  19 BEND      2  6 14                  1.9421731     111.2783195
  20 BEND      2  4  9                  1.9421657     111.2778965
  21 BEND      2  5 12                  1.9421929     111.2794586
  22 BEND      2  5 10                  1.9422210     111.2810643
  23 BEND      2  4  7                  1.9421835     111.2789153
  24 BEND      2  6 15                  1.8617547     106.6706876
  25 BEND      3  2  4                  1.8566295     106.3770343
  26 BEND      3  2  5                  1.8564257     106.3653596
  27 BEND      3  2  6                  1.8563668     106.3619840
  28 BEND      4  2  6                  1.9615455     112.3882757
  29 BEND      4  2  5                  1.9615420     112.3880789
  30 BEND      5  2  6                  1.9615340     112.3876199
  31 BEND      7  4  9                  1.9411093     111.2173696
  32 BEND      7  4  8                  1.8865465     108.0911531
  33 BEND      8  4  9                  1.8865760     108.0928403
  34 BEND     10  5 11                  1.8865249     108.0899157
  35 BEND     10  5 12                  1.9411462     111.2194854
  36 BEND     11  5 12                  1.8865127     108.0892176
  37 BEND     13  6 14                  1.9411688     111.2207796
  38 BEND     13  6 15                  1.8864953     108.0882171
  39 BEND     14  6 15                  1.8865259     108.0899695
  40 TORSION   1  3  2  5               0.9826059      56.2991703
  41 TORSION   1  3  2  4               3.0770573     176.3023961
  42 TORSION   1  3  2  6              -1.1117026     -63.6958676
  43 TORSION   3  2  4  8               3.1415018     179.9947971
  44 TORSION   3  2  6 15               3.1414176     179.9899701
  45 TORSION   3  2  6 14              -1.0879358     -62.3341312
  46 TORSION   3  2  4  7              -1.0878237     -62.3277076
  47 TORSION   3  2  5 10              -1.0876530     -62.3179262
  48 TORSION   3  2  6 13               1.0876044      62.3151424
  49 TORSION   3  2  5 11              -3.1414924    -179.9942563
  50 TORSION   3  2  5 12               1.0878833      62.3311241
  51 TORSION   3  2  4  9               1.0876163      62.3158257
  52 TORSION   4  2  6 15              -1.1167595     -63.9856053
  53 TORSION   4  2  6 14               0.9370724      53.6902935
  54 TORSION   4  2  5 10              -3.1126949    -178.3442782
  55 TORSION   4  2  6 13               3.1126126     178.3395670
  56 TORSION   4  2  5 12              -0.9371585     -53.6952280
  57 TORSION   4  2  5 11               1.1166510      63.9793917
  58 TORSION   5  2  6 15               1.1166606      63.9799412
  59 TORSION   5  2  6 14              -3.1126928    -178.3441601
  60 TORSION   5  2  4  7               0.9370955      53.6916197
  61 TORSION   5  2  6 13              -0.9371526     -53.6948865
  62 TORSION   5  2  4  9               3.1125356     178.3351530
  63 TORSION   5  2  4  8              -1.1167642     -63.9858756
  64 TORSION   6  2  4  7              -3.1126739    -178.3430761
  65 TORSION   6  2  5 10               0.9370685      53.6900713
  66 TORSION   6  2  5 11              -1.1167709     -63.9862587
  67 TORSION   6  2  5 12               3.1126049     178.3391216
  68 TORSION   6  2  4  9              -0.9372338     -53.6995428
  69 TORSION   6  2  4  8               1.1166517      63.9794286

          ********************
          1 ELECTRON INTEGRALS
          ********************
 TIME TO DO ORDINARY INTEGRALS=      0.03
 TIME TO DO      ECP INTEGRALS=      0.05
 ...... END OF ONE-ELECTRON INTEGRALS ......
 CPU     0: STEP CPU TIME=     0.08 TOTAL CPU TIME=        0.2 (    0.0 MIN)
 TOTAL WALL CLOCK TIME=        0.3 SECONDS, CPU UTILIZATION IS  65.38%

          -------------
          GUESS OPTIONS
          -------------
          GUESS =HUCKEL            NORB  =       0          NORDER=       0
          MIX   =       F          PRTMO =       F          PUNMO =       F
          TOLZ  = 1.0E-08          TOLE  = 1.0E-05
          SYMDEN=       F          PURIFY=       F

 INITIAL GUESS ORBITALS GENERATED BY HUCKEL   ROUTINE.
 HUCKEL GUESS REQUIRES    916545 WORDS.

 STATISTICS FOR GENERATION OF SYMMETRY ORBITAL -Q- MATRIX
 NUMBER OF CARTESIAN ATOMIC ORBITALS=        354
 NUMBER OF SPHERICAL CONTAMINANTS DROPPED=    38
 NUMBER OF LINEARLY DEPENDENT MOS DROPPED=     0
 TOTAL NUMBER OF MOS IN VARIATION SPACE=     316

 SYMMETRIES FOR INITIAL GUESS ORBITALS FOLLOW.   BOTH SET(S).
    29 ORBITALS ARE OCCUPIED (   13 CORE ORBITALS).
    14=A       15=A       16=A       17=A       18=A       19=A       20=A   
    21=A       22=A       23=A       24=A       25=A       26=A       27=A   
    28=A       29=A       30=A       31=A       32=A       33=A       34=A   
    35=A       36=A       37=A       38=A       39=A   
 ...... END OF INITIAL ORBITAL SELECTION ......
 CPU     0: STEP CPU TIME=     0.18 TOTAL CPU TIME=        0.4 (    0.0 MIN)
 TOTAL WALL CLOCK TIME=        0.8 SECONDS, CPU UTILIZATION IS  46.05%

                    ----------------------
                    AO INTEGRAL TECHNOLOGY
                    ----------------------
     S,P,L SHELL ROTATED AXIS INTEGRALS, REPROGRAMMED BY
        KAZUYA ISHIMURA (IMS) AND JOSE SIERRA (SYNSTAR).
     S,P,D,L SHELL ROTATED AXIS INTEGRALS PROGRAMMED BY
        KAZUYA ISHIMURA (INSTITUTE FOR MOLECULAR SCIENCE).
     S,P,D,F,G SHELL TO TOTAL QUARTET ANGULAR MOMENTUM SUM 5,
        ERIC PROGRAM BY GRAHAM FLETCHER (ELORET AND NASA ADVANCED
        SUPERCOMPUTING DIVISION, AMES RESEARCH CENTER).
     S,P,D,F,G,L SHELL GENERAL RYS QUADRATURE PROGRAMMED BY
        MICHEL DUPUIS (PACIFIC NORTHWEST NATIONAL LABORATORY).

          --------------------
          2 ELECTRON INTEGRALS
          --------------------

 DIRECT SCF METHOD SKIPS INTEGRAL STORAGE ON DISK.
 DIRECT TRANSFORMATION SKIPS AO INTEGRAL STORAGE ON DISK.
  ...... END OF TWO-ELECTRON INTEGRALS .....
 CPU     0: STEP CPU TIME=     0.01 TOTAL CPU TIME=        0.4 (    0.0 MIN)
 TOTAL WALL CLOCK TIME=        0.8 SECONDS, CPU UTILIZATION IS  46.75%

          --------------------------
                 RHF SCF CALCULATION
          --------------------------

     NUCLEAR ENERGY =       334.9509477950
     MAXIT =  200     NPUNCH=    2
     EXTRAP=T  DAMP=F  SHIFT=F  RSTRCT=F  DIIS=F  DEM=F  SOSCF=T
     DENSITY MATRIX CONV=  2.00E-06
     SOSCF WILL OPTIMIZE    8323 ORBITAL ROTATIONS, SOGTOL=   0.250
     MEMORY REQUIRED FOR RHF ITERS=    982670 WORDS.

 DIRECT SCF CALCULATION, SCHWRZ=T   FDIFF=F,  DIRTHR=  0.00E+00 NITDIR=10
 SCHWARZ INEQUALITY OVERHEAD:     62136 INTEGRALS, T=        0.01

                                                                                   NONZERO     BLOCKS
 ITER EX DEM     TOTAL ENERGY        E CHANGE  DENSITY CHANGE     ORB. GRAD      INTEGRALS    SKIPPED
   1  0  0     -563.3637819418  -563.3637819418   0.369628252   0.000000000     1469287111    4161462
          ---------------START SECOND ORDER SCF---------------
   2  1  0     -564.4960491977    -1.1322672559   0.169739513   0.096434808     1456047274    4468773
   3  2  0     -564.6229025279    -0.1268533302   0.065736887   0.063968195     1454689721    4491903
   4  3  0     -564.7223308248    -0.0994282969   0.020579627   0.011442810     1455296849    4475871
   5  4  0     -564.7248671893    -0.0025363644   0.006557520   0.005791424     1455849550    4467403
   6  5  0     -564.7254834431    -0.0006162539   0.002782034   0.001141175     1455922936    4465969
   7  6  0     -564.7255347521    -0.0000513090   0.000929356   0.000269932     1455969683    4465473
   8  7  0     -564.7255394432    -0.0000046911   0.000342105   0.000076387     1455986557    4465436
   9  8  0     -564.7255398867    -0.0000004435   0.000120852   0.000021348     1455992036    4465387
  10  9  0     -564.7255399339    -0.0000000472   0.000043364   0.000011495     1456001072    4465404
  11 10  0     -564.7255399413    -0.0000000074   0.000016371   0.000005283     1456001293    4465404
  12 11  0     -564.7255399426    -0.0000000013   0.000006722   0.000001965     1456001550    4465398
  13 12  0     -564.7255399428    -0.0000000002   0.000002658   0.000000771     1456000302    4465402
  14 13  0     -564.7255399428    -0.0000000000   0.000001154   0.000000297     1456000322    4465403

          -----------------
          DENSITY CONVERGED
          -----------------
     TIME TO FORM FOCK OPERATORS=      91.5 SECONDS (       6.5 SEC/ITER)
     FOCK TIME ON FIRST ITERATION=       6.6, LAST ITERATION=       6.5
     TIME TO SOLVE SCF EQUATIONS=       0.4 SECONDS (       0.0 SEC/ITER)

 FINAL RHF ENERGY IS     -564.7255399428 AFTER  14 ITERATIONS

          ------------
          EIGENVECTORS
          ------------

                      1          2          3          4          5
                  -80.4712   -21.0450   -11.6336   -11.6334   -11.6309
                     A          A          A          A          A   
    1  LA 1  S    0.000004  -0.000019   0.000003   0.000003   0.000004
    2  LA 1  X   -0.000001   0.000004  -0.000011  -0.000001   0.000009
    3  LA 1  Y   -0.000000  -0.000001  -0.000006   0.000012  -0.000007
    4  LA 1  Z    0.000005  -0.000006  -0.000000   0.000004   0.000008
    5  LA 1 XX    0.000004  -0.000009   0.000001  -0.000009   0.000005
    6  LA 1 YY    0.000004  -0.000012  -0.000008   0.000009  -0.000004
    7  LA 1 ZZ   -0.000008   0.000021   0.000007   0.000000  -0.000001
    8  LA 1 XY   -0.000000   0.000001   0.000006   0.000002  -0.000007
    9  LA 1 XZ    0.000003  -0.000013   0.000010  -0.000003  -0.000005
   10  LA 1 YZ    0.000001  -0.000001   0.000006  -0.000010   0.000001
   11  LA 1 XX    0.000001   0.000063   0.000013   0.000037   0.000015
   12  LA 1 YY    0.000001   0.000069   0.000034   0.000003   0.000031
   13  LA 1 ZZ   -0.000002  -0.000132  -0.000047  -0.000041  -0.000046
   14  LA 1 XY   -0.000000  -0.000006  -0.000015  -0.000004   0.000013
   15  LA 1 XZ    0.000002   0.000049   0.000000   0.000021   0.000017
   16  LA 1 YZ   -0.000000   0.000023  -0.000002   0.000018   0.000012
   17  LA 1  S   -0.000012  -0.000124  -0.000118  -0.000125  -0.000128
   18  LA 1  X    0.000000   0.000024  -0.000010   0.000009   0.000023
   19  LA 1  Y   -0.000000   0.000008  -0.000009   0.000024  -0.000005
   20  LA 1  Z    0.000002  -0.000096  -0.000040  -0.000035  -0.000036
   21  LA 1  S    0.000005   0.000052   0.000192   0.000203   0.000197
   22  LA 1  X   -0.000000  -0.000013   0.000017  -0.000028  -0.000065
   23  LA 1  Y    0.000000  -0.000002   0.000007  -0.000069   0.000004
   24  LA 1  Z   -0.000001   0.000044   0.000167   0.000160   0.000156
   25  LA 1  S   -0.000020  -0.000024  -0.000015  -0.000016  -0.000022
   26  LA 1  X    0.000006   0.000012   0.000025   0.000005  -0.000011
   27  LA 1  Y    0.000002   0.000013   0.000014  -0.000020   0.000016
   28  LA 1  Z   -0.000027  -0.000095  -0.000020  -0.000030  -0.000042
   29  LA 1 XX   -0.000001  -0.000013  -0.000043  -0.000059  -0.000029
   30  LA 1 YY   -0.000001  -0.000016  -0.000058  -0.000023  -0.000055
   31  LA 1 ZZ    0.000001   0.000028   0.000101   0.000082   0.000084
   32  LA 1 XY    0.000000   0.000001   0.000009   0.000010  -0.000010
   33  LA 1 XZ   -0.000001  -0.000014   0.000013  -0.000029  -0.000053
   34  LA 1 YZ   -0.000000  -0.000004   0.000003  -0.000057  -0.000005
   35  P  2  S    1.000138   0.000083   0.000079   0.000084   0.000084
   36  P  2  S    0.000178   0.000519   0.000562   0.000595   0.000595
   37  P  2  S    0.000192   0.000692   0.000872   0.000924   0.000921
   38  P  2  S   -0.000946  -0.000239  -0.000277  -0.000294  -0.000296
   39  P  2  S   -0.000349  -0.002539   0.000109   0.000119   0.000162
   40  P  2  X    0.000013   0.000020   0.000403  -0.000011  -0.000442
   41  P  2  Y    0.000011   0.000020   0.000226  -0.000496   0.000239
   42  P  2  Z   -0.000085  -0.000146   0.000222   0.000074   0.000109
   43  P  2  X    0.000013   0.000057   0.001059  -0.000026  -0.001154
   44  P  2  Y    0.000010   0.000056   0.000594  -0.001299   0.000627
   45  P  2  Z   -0.000082  -0.000411   0.000568   0.000181   0.000274
   46  P  2  X   -0.000007  -0.000019  -0.000045   0.000003   0.000055
   47  P  2  Y   -0.000005  -0.000018  -0.000025   0.000059  -0.000028
   48  P  2  Z    0.000043   0.000135  -0.000037  -0.000020  -0.000023
   49  P  2  X    0.000010  -0.000214  -0.000065  -0.000047  -0.000015
   50  P  2  Y    0.000013  -0.000148  -0.000041  -0.000007  -0.000048
   51  P  2  Z   -0.000085   0.001253   0.000247   0.000269   0.000257
   52  P  2 XX   -0.000003  -0.000086   0.000110  -0.000154   0.000147
   53  P  2 YY   -0.000003  -0.000085  -0.000090   0.000243  -0.000067
   54  P  2 ZZ    0.000007   0.000171  -0.000020  -0.000089  -0.000080
   55  P  2 XY    0.000000   0.000007   0.000162   0.000026  -0.000191
   56  P  2 XZ   -0.000002  -0.000043   0.000148  -0.000008  -0.000090
   57  P  2 YZ   -0.000001  -0.000040   0.000075  -0.000059   0.000034
   58  P  2 XX   -0.000027  -0.000094   0.000233  -0.000116   0.000371
   59  P  2 YY   -0.000027  -0.000101  -0.000053   0.000523  -0.000017
   60  P  2 ZZ    0.000054   0.000195  -0.000181  -0.000406  -0.000354
   61  P  2 XY    0.000001  -0.000003   0.000195   0.000054  -0.000290
   62  P  2 XZ   -0.000012  -0.000047   0.000439   0.000048  -0.000246
   63  P  2 YZ   -0.000013  -0.000049   0.000259  -0.000225   0.000203
   64  P  2 XXX  -0.000003  -0.000057   0.000015  -0.000008  -0.000039
   65  P  2 YYY  -0.000004   0.000050  -0.000030  -0.000083  -0.000034
   66  P  2 ZZZ  -0.000014  -0.000242  -0.000075  -0.000038  -0.000050
   67  P  2 XXY   0.000000  -0.000158   0.000045   0.000034   0.000059
   68  P  2 XXZ   0.000010   0.000143   0.000066   0.000033   0.000033
   69  P  2 YYX  -0.000001  -0.000014   0.000001  -0.000006  -0.000018
   70  P  2 YYZ   0.000009   0.000182   0.000034   0.000018   0.000035
   71  P  2 ZZX   0.000005   0.000091  -0.000020   0.000017   0.000070
   72  P  2 ZZY   0.000005   0.000091  -0.000005   0.000077  -0.000013
   73  P  2 XYZ  -0.000001  -0.000040   0.000028  -0.000007  -0.000011
   74  P  2 XX    0.000001   0.000025  -0.000001   0.000005  -0.000001
   75  P  2 YY    0.000001   0.000025   0.000003  -0.000003   0.000003
   76  P  2 ZZ   -0.000002  -0.000051  -0.000003  -0.000002  -0.000002
   77  P  2 XY   -0.000000  -0.000002  -0.000004  -0.000001   0.000004
   78  P  2 XZ    0.000001   0.000013  -0.000001   0.000001   0.000002
   79  P  2 YZ    0.000000   0.000012  -0.000000   0.000001   0.000000
   80  O  3  S   -0.000001   0.975626   0.000026   0.000028   0.000028
   81  O  3  S   -0.000002  -0.001135   0.000039   0.000041   0.000041
[...]
            144  C  4 XXZ     0.00083     0.07828
            145  C  4 YYX     0.00074     0.07153
            146  C  4 YYZ     0.00145     0.06720
            147  C  4 ZZX     0.00000     0.06929
            148  C  4 ZZY     0.00000     0.06542
            149  C  4 XYZ     0.00000     0.00263
            150  C  5  S      1.95557     1.55547
            151  C  5  S      0.82789     0.43046
            152  C  5  S      0.16165     0.27760
            153  C  5  S      0.32968     0.14791
            154  C  5  X      0.27573     0.21289
            155  C  5  Y      0.29411     0.22581
            156  C  5  Z      0.29019     0.22374
            157  C  5  X      0.51911     0.26716
            158  C  5  Y      0.53778     0.27881
            159  C  5  Z      0.53474     0.27948
            160  C  5  X      0.14508     0.18701
            161  C  5  Y      0.18679     0.20197
            162  C  5  Z      0.22724     0.20774
            163  C  5 XX      0.00515     0.08514
            164  C  5 YY      0.00495     0.08653
            165  C  5 ZZ      0.00457     0.08516
            166  C  5 XY      0.00426     0.00491
            167  C  5 XZ      0.00330     0.00486
            168  C  5 YZ      0.00000     0.00372
            169  C  5 XX      0.00819     0.08987
            170  C  5 YY      0.01218     0.08950
            171  C  5 ZZ      0.01193     0.08464
            172  C  5 XY      0.01114     0.02825
            173  C  5 XZ      0.00823     0.02616
            174  C  5 YZ      0.00000     0.01616
            175  C  5 XXX     0.00088     0.15989
            176  C  5 YYY     0.00069     0.16963
            177  C  5 ZZZ     0.00089     0.17048
            178  C  5 XXY     0.00134     0.07853
            179  C  5 XXZ     0.00069     0.07443
            180  C  5 YYX     0.00086     0.07222
            181  C  5 YYZ     0.00142     0.06597
            182  C  5 ZZX     0.00000     0.06781
            183  C  5 ZZY     0.00000     0.06597
            184  C  5 XYZ     0.00000     0.00288
            185  C  6  S      1.95557     1.55591
            186  C  6  S      0.82790     0.43269
            187  C  6  S      0.16166     0.27879
            188  C  6  S      0.32944     0.14884
            189  C  6  X      0.30085     0.22870
            190  C  6  Y      0.26100     0.20701
            191  C  6  Z      0.29819     0.22879
            192  C  6  X      0.54429     0.27955
            193  C  6  Y      0.50185     0.26567
            194  C  6  Z      0.54546     0.28093
            195  C  6  X      0.20090     0.20595
            196  C  6  Y      0.10911     0.17207
            197  C  6  Z      0.24867     0.21237
            198  C  6 XX      0.00570     0.08695
            199  C  6 YY      0.00575     0.08995
            200  C  6 ZZ      0.00388     0.08656
            201  C  6 XY      0.00412     0.00354
            202  C  6 XZ      0.00278     0.00437
            203  C  6 YZ      0.00000     0.00283
            204  C  6 XX      0.01029     0.08822
            205  C  6 YY      0.01434     0.10205
            206  C  6 ZZ      0.01074     0.08690
            207  C  6 XY      0.00832     0.02480
            208  C  6 XZ      0.00798     0.01838
            209  C  6 YZ      0.00000     0.01414
            210  C  6 XXX     0.00092     0.16204
            211  C  6 YYY     0.00086     0.16687
            212  C  6 ZZZ     0.00075     0.16840
            213  C  6 XXY     0.00136     0.07350
            214  C  6 XXZ     0.00090     0.07400
            215  C  6 YYX     0.00050     0.08169
            216  C  6 YYZ     0.00148     0.07252
            217  C  6 ZZX     0.00000     0.07285
            218  C  6 ZZY     0.00000     0.06288
            219  C  6 XYZ     0.00000     0.00249
            220  H  7  S      0.25274     0.19401
            221  H  7  S      0.45204     0.24421
            222  H  7  S      0.06093     0.11880
            223  H  7  X      0.00158     0.00204
            224  H  7  Y      0.00734     0.01067
            225  H  7  Z      0.00185     0.00246
            226  H  7  X      0.01044     0.02881
            227  H  7  Y      0.00558     0.04765
            228  H  7  Z      0.00809     0.02978
            229  H  7 XX      0.00035     0.06898
            230  H  7 YY      0.00064     0.11485
            231  H  7 ZZ      0.00100     0.07084
            232  H  7 XY      0.00009     0.00483
            233  H  7 XZ      0.00080     0.00020
            234  H  7 YZ      0.00000     0.00541
            235  H  8  S      0.24745     0.19082
            236  H  8  S      0.44804     0.23974
            237  H  8  S      0.04619     0.11416
            238  H  8  X      0.00178     0.00257
            239  H  8  Y      0.00168     0.00220
            240  H  8  Z      0.00731     0.01055
            241  H  8  X      0.01039     0.02946
            242  H  8  Y      0.00816     0.02840
            243  H  8  Z      0.00520     0.04754
            244  H  8 XX      0.00086     0.06982
            245  H  8 YY      0.00013     0.06857
            246  H  8 ZZ      0.00011     0.11255
            247  H  8 XY      0.00096     0.00031
            248  H  8 XZ      0.00080     0.00527
            249  H  8 YZ      0.00000     0.00492
            250  H  9  S      0.25272     0.18582
            251  H  9  S      0.45196     0.24189
            252  H  9  S      0.06078     0.11910
            253  H  9  X      0.00532     0.00703
            254  H  9  Y      0.00250     0.00347
            255  H  9  Z      0.00295     0.00408
            256  H  9  X      0.01069     0.04277
            257  H  9  Y      0.00694     0.03127
            258  H  9  Z      0.00648     0.03354
            259  H  9 XX      0.00055     0.09521
            260  H  9 YY      0.00084     0.07464
            261  H  9 ZZ      0.00058     0.07831
            262  H  9 XY      0.00060     0.00479
            263  H  9 XZ      0.00031     0.00525
            264  H  9 YZ      0.00000     0.00227
            265  H 10  S      0.25310     0.18834
            266  H 10  S      0.45269     0.24308
            267  H 10  S      0.06293     0.11969
            268  H 10  X      0.00604     0.00805
            269  H 10  Y      0.00272     0.00397
            270  H 10  Z      0.00199     0.00268
            271  H 10  X      0.00934     0.04441
            272  H 10  Y      0.00658     0.03213
            273  H 10  Z      0.00812     0.03105
            274  H 10 XX      0.00037     0.10150
            275  H 10 YY      0.00095     0.07813
            276  H 10 ZZ      0.00066     0.07051
            277  H 10 XY      0.00068     0.00589
            278  H 10 XZ      0.00023     0.00473
            279  H 10 YZ      0.00000     0.00134
            280  H 11  S      0.24732     0.19059
            281  H 11  S      0.44706     0.23966
            282  H 11  S      0.04517     0.11393
            283  H 11  X      0.00166     0.00220
            284  H 11  Y      0.00169     0.00221
            285  H 11  Z      0.00743     0.01082
            286  H 11  X      0.00900     0.02893
            287  H 11  Y      0.00805     0.02834
            288  H 11  Z      0.00657     0.04799
            289  H 11 XX      0.00094     0.06896
            290  H 11 YY      0.00010     0.06846
            291  H 11 ZZ      0.00009     0.11321
            292  H 11 XY      0.00092     0.00022
            293  H 11 XZ      0.00081     0.00515
            294  H 11 YZ      0.00000     0.00503
            295  H 12  S      0.25284     0.19416
            296  H 12  S      0.45153     0.24426
            297  H 12  S      0.06087     0.11889
            298  H 12  X      0.00161     0.00211
            299  H 12  Y      0.00733     0.01066
            300  H 12  Z      0.00182     0.00242
            301  H 12  X      0.01037     0.02843
            302  H 12  Y      0.00511     0.04748
            303  H 12  Z      0.00841     0.03031
            304  H 12 XX      0.00033     0.06897
            305  H 12 YY      0.00064     0.11492
            306  H 12 ZZ      0.00099     0.07093
            307  H 12 XY      0.00010     0.00490
            308  H 12 XZ      0.00082     0.00023
            309  H 12 YZ      0.00000     0.00533
            310  H 13  S      0.25309     0.18868
            311  H 13  S      0.45273     0.24278
            312  H 13  S      0.06293     0.11931
            313  H 13  X      0.00577     0.00748
            314  H 13  Y      0.00294     0.00461
            315  H 13  Z      0.00204     0.00275
            316  H 13  X      0.00359     0.04239
            317  H 13  Y      0.01268     0.03477
            318  H 13  Z      0.00778     0.03047
            319  H 13 XX      0.00038     0.09961
            320  H 13 YY      0.00084     0.08016
            321  H 13 ZZ      0.00077     0.07065
            322  H 13 XY      0.00062     0.00588
            323  H 13 XZ      0.00027     0.00457
            324  H 13 YZ      0.00000     0.00156
            325  H 14  S      0.25282     0.18609
            326  H 14  S      0.45148     0.24147
            327  H 14  S      0.06072     0.11872
            328  H 14  X      0.00513     0.00658
            329  H 14  Y      0.00268     0.00400
            330  H 14  Z      0.00295     0.00410
            331  H 14  X      0.00480     0.04048
            332  H 14  Y      0.01254     0.03345
            333  H 14  Z      0.00656     0.03344
            334  H 14 XX      0.00054     0.09369
            335  H 14 YY      0.00071     0.07621
            336  H 14 ZZ      0.00071     0.07838
            337  H 14 XY      0.00058     0.00478
            338  H 14 XZ      0.00035     0.00508
            339  H 14 YZ      0.00000     0.00244
            340  H 15  S      0.24733     0.19082
            341  H 15  S      0.44713     0.23960
            342  H 15  S      0.04525     0.11388
            343  H 15  X      0.00173     0.00234
            344  H 15  Y      0.00177     0.00253
            345  H 15  Z      0.00728     0.01048
            346  H 15  X      0.00787     0.02834
            347  H 15  Y      0.01106     0.02979
            348  H 15  Z      0.00470     0.04763
            349  H 15 XX      0.00086     0.06861
            350  H 15 YY      0.00015     0.07008
            351  H 15 ZZ      0.00011     0.11232
            352  H 15 XY      0.00079     0.00029
            353  H 15 XZ      0.00096     0.00537
            354  H 15 YZ      0.00000     0.00483

          ----- MULLIKEN ATOMIC OVERLAP POPULATIONS -----
          (OFF-DIAGONAL ELEMENTS NEED TO BE MULTIPLIED BY 2)

             1           2           3           4           5

    1    8.5899235
    2   -0.0114926  13.2667957
    3    0.0179294   0.2118235   8.5950372
    4   -0.0001729   0.3466105  -0.0168609   5.0052379
    5    0.0001437   0.3470728  -0.0160754  -0.0317154   5.0123727
    6    0.0001162   0.3470584  -0.0161569  -0.0317293  -0.0315488
    7    0.0005341  -0.0164859   0.0009069   0.3646035  -0.0026757
    8    0.0005014  -0.0135466   0.0011189   0.3587286  -0.0003774
    9    0.0005306  -0.0165113   0.0009078   0.3646468   0.0023518
   10    0.0006493  -0.0168220   0.0008586   0.0024495   0.3644093
   11    0.0004277  -0.0134550   0.0012163  -0.0004815   0.3581062
   12    0.0006031  -0.0171518   0.0008964  -0.0026477   0.3649754
   13    0.0006439  -0.0167692   0.0008626   0.0024489  -0.0028316
   14    0.0005939  -0.0171243   0.0009009  -0.0026347   0.0023641
   15    0.0004333  -0.0134555   0.0012086  -0.0004839  -0.0003429

             6           7           8           9          10

    6    5.0118149
    7    0.0023579   0.4831380
    8   -0.0003871  -0.0109504   0.4554253
    9   -0.0026620  -0.0183836  -0.0109208   0.4828390
   10   -0.0028296  -0.0000003   0.0000129  -0.0000708   0.4872622
   11   -0.0003511  -0.0001940  -0.0000553   0.0000135  -0.0106749
   12    0.0023709   0.0006848  -0.0002180  -0.0000070  -0.0193834
   13    0.3643731  -0.0000709   0.0000128  -0.0000003   0.0007281
   14    0.3649825  -0.0000066  -0.0002179   0.0006815  -0.0000068
   15    0.3581518   0.0000132  -0.0000547  -0.0001955  -0.0001975

            11          12          13          14          15

   11    0.4527907
   12   -0.0102839   0.4830016
   13   -0.0001955  -0.0000064   0.4872678
   14    0.0000156  -0.0000695  -0.0193050   0.4827012
   15   -0.0000655   0.0000155  -0.0107243  -0.0103038   0.4529809

          TOTAL MULLIKEN AND LOWDIN ATOMIC POPULATIONS
       ATOM         MULL.POP.    CHARGE          LOW.POP.     CHARGE
    1 LA            8.601365    2.398635         8.772698    2.227302
    2 P            14.366547    0.633453        14.309849    0.690151
    3 O             8.784574   -0.784574         8.418494   -0.418494
    4 C             6.357999   -0.357999         6.030418   -0.030418
    5 C             6.366229   -0.366229         6.028796   -0.028796
    6 C             6.365561   -0.365561         6.043214   -0.043214
    7 H             0.803471    0.196529         0.943531    0.056469
    8 H             0.779072    0.220928         0.926881    0.073119
    9 H             0.803220    0.196780         0.929430    0.070570
   10 H             0.806385    0.193615         0.935494    0.064506
   11 H             0.776813    0.223187         0.925694    0.074306
   12 H             0.802780    0.197220         0.943991    0.056009
   13 H             0.806434    0.193566         0.935693    0.064307
   14 H             0.802571    0.197429         0.928899    0.071101
   15 H             0.776980    0.223020         0.926917    0.073083

          MULLIKEN SPHERICAL HARMONIC POPULATIONS
       ATOM           S       P       D      F      G      H      I    TOTAL
    1 LA            2.00    6.10    0.50   0.00   0.00   0.00   0.00    8.60
    2 P             5.34    8.38    0.57   0.07   0.00   0.00   0.00   14.37
    3 O             3.78    4.96    0.04   0.00   0.00   0.00   0.00    8.78
    4 C             3.27    3.01    0.07   0.01   0.00   0.00   0.00    6.36
    5 C             3.27    3.01    0.07   0.01   0.00   0.00   0.00    6.37
    6 C             3.27    3.01    0.07   0.01   0.00   0.00   0.00    6.37
    7 H             0.77    0.03    0.00   0.00   0.00   0.00   0.00    0.80
    8 H             0.74    0.03    0.00   0.00   0.00   0.00   0.00    0.78
    9 H             0.77    0.03    0.00   0.00   0.00   0.00   0.00    0.80
   10 H             0.77    0.03    0.00   0.00   0.00   0.00   0.00    0.81
   11 H             0.74    0.03    0.00   0.00   0.00   0.00   0.00    0.78
   12 H             0.77    0.03    0.00   0.00   0.00   0.00   0.00    0.80
   13 H             0.77    0.03    0.00   0.00   0.00   0.00   0.00    0.81
   14 H             0.77    0.03    0.00   0.00   0.00   0.00   0.00    0.80
   15 H             0.74    0.03    0.00   0.00   0.00   0.00   0.00    0.78

          -------------------------------
          BOND ORDER AND VALENCE ANALYSIS     BOND ORDER THRESHOLD=0.050
          -------------------------------

                   BOND                       BOND                       BOND
  ATOM PAIR DIST  ORDER      ATOM PAIR DIST  ORDER      ATOM PAIR DIST  ORDER
    1   3  2.089  0.679        2   3  1.702  0.771        2   4  1.771  1.020
    2   5  1.772  1.018        2   6  1.772  1.018        4   7  1.089  0.876
    4   8  1.095  0.857        4   9  1.089  0.876        5  10  1.089  0.876
    5  11  1.095  0.857        5  12  1.089  0.876        6  13  1.089  0.876
    6  14  1.089  0.876        6  15  1.095  0.857

                       TOTAL       BONDED        FREE
      ATOM            VALENCE     VALENCE     VALENCE
    1 LA                0.668       0.747      -0.079
    2 P                 4.576       4.223       0.353
    3 O                 2.048       1.486       0.562
    4 C                 3.932       3.640       0.292
    5 C                 3.933       3.641       0.293
    6 C                 3.933       3.641       0.293
    7 H                 0.976       0.925       0.051
    8 H                 0.967       0.917       0.050
    9 H                 0.976       0.925       0.051
   10 H                 0.977       0.926       0.051
   11 H                 0.967       0.917       0.050
   12 H                 0.976       0.925       0.051
   13 H                 0.977       0.926       0.051
   14 H                 0.976       0.925       0.051
   15 H                 0.967       0.917       0.050

          ---------------------
          ELECTROSTATIC MOMENTS
          ---------------------

 POINT   1           X           Y           Z (BOHR)    CHARGE
                 0.111284    1.339014   -4.842001        3.00 (A.U.)
         DX          DY          DZ         /D/  (DEBYE)
     0.380361    0.016779   -1.023241    1.091778
 ...... END OF PROPERTY EVALUATION ......
 CPU     0: STEP CPU TIME=     0.20 TOTAL CPU TIME=     1313.4 (   21.9 MIN)
 TOTAL WALL CLOCK TIME=     1333.9 SECONDS, CPU UTILIZATION IS  98.46%
  $VIB   
          IVIB=   0 IATOM=   0 ICOORD=   0 E=     -565.6104065196
 -1.312120267E-06-9.601690691E-07 5.415793435E-06 1.791865622E-05-2.412884547E-05
  6.458951797E-05 1.601103191E-05 5.754476491E-06-6.124484551E-05-3.417139233E-06
  5.726115785E-06-2.092292085E-05-1.733979003E-05 7.656883010E-06 1.072457089E-05
 -1.727847658E-05 7.486446837E-06 9.141652300E-06-3.387408159E-06-5.600404678E-07
 -1.380960535E-06 5.172581370E-06-2.475708717E-06 1.291999209E-06-1.235499063E-06
  2.598800770E-06 9.599580747E-07 2.958653242E-06 1.297161686E-05-1.385807806E-05
 -5.619267535E-07-1.774408902E-05-7.794430345E-07-1.912114371E-06 9.904531243E-07
  9.583913919E-06-7.372000149E-06-3.789431902E-06-1.852294681E-05-4.238188280E-06
 -1.588313276E-06 1.005433396E-05 1.599374015E-05 8.061805046E-06 4.947455043E-06
  3.803612205E-01 1.677892848E-02-1.023240923E+00
 ......END OF GEOMETRY SEARCH......
 CPU     0: STEP CPU TIME=     0.01 TOTAL CPU TIME=     1313.4 (   21.9 MIN)
 TOTAL WALL CLOCK TIME=     1333.9 SECONDS, CPU UTILIZATION IS  98.46%
               2991967  WORDS OF DYNAMIC MEMORY USED
 EXECUTION OF GAMESS TERMINATED NORMALLY Fri Jun 10 00:42:18 2016
 DDI: 44487344 bytes (42.4 MB / 5 MWords) used by master data server.

 ----------------------------------------
 CPU timing information for all processes
 ========================================
 0: 1311.342 + 2.166 = 1313.509
 1: 1311.984 + 2.27 = 1314.12
 2: 1311.792 + 2.14 = 1313.807
 3: 1310.330 + 2.37 = 1312.368
 4: 1312.501 + 1.973 = 1314.475
 5: 1312.963 + 1.990 = 1314.954
 6: 1312.797 + 2.58 = 1314.856
 7: 1312.493 + 2.83 = 1314.577
 8: 1312.132 + 2.77 = 1314.210
 9: 1313.318 + 1.946 = 1315.265
 10: 1314.37 + 2.115 = 1316.152
 11: 1313.18 + 2.74 = 1315.93
 12: 1313.312 + 2.119 = 1315.432
 13: 1312.54 + 1.917 = 1313.972
 14: 1311.743 + 2.39 = 1313.783
 15: 1312.43 + 1.580 = 1313.624
 16: 0.19 + 0.107 = 0.127
 17: 0.11 + 0.123 = 0.135
 18: 0.16 + 0.114 = 0.131
 19: 0.12 + 0.121 = 0.134
 20: 0.10 + 0.111 = 0.122
 21: 0.10 + 0.122 = 0.133
 22: 0.12 + 0.115 = 0.128
 23: 0.11 + 0.118 = 0.130
 24: 0.10 + 0.112 = 0.123
 25: 0.16 + 0.110 = 0.127
 26: 0.14 + 0.119 = 0.134
 27: 0.12 + 0.109 = 0.122
 28: 0.15 + 0.108 = 0.124
 29: 0.20 + 0.118 = 0.139
 30: 0.10 + 0.123 = 0.134
 31: 0.20 + 0.109 = 0.130
 ----------------------------------------
unset echo
----- accounting info -----
Files used on the master node node240 were:
-rw-r--r-- 1 fzahari quantum     1964 Jun 10 00:20 /local/scratch/fzahari/196715.share/ang_var-1760.F05
-rw-r--r-- 1 fzahari quantum 17178000 Jun 10 00:42 /local/scratch/fzahari/196715.share/ang_var-1760.F10
-rw-r--r-- 1 fzahari quantum        8 Jun 10 00:20 /local/scratch/fzahari/196715.share/ang_var-1760.nodes.mpd
ls: No match.
ls: No match.
ls: No match.
Fri Jun 10 00:42:20 CDT 2016
20998.673u 38.327s 22:18.19 1572.0%	0+0k 104+207360io 0pf+0w
