----- GAMESS execution script 'rungms' -----
This job is running on host node192
under operating system Linux at Sun Jun 12 13:49:17 CDT 2016
PBS has assigned the following compute nodes to this run:
node192
Available scratch disk space (Kbyte units) at beginning of the job is
Filesystem           1K-blocks      Used Available Use% Mounted on
/dev/sda7            2670838024   1141532 2534025708   1% /local
GAMESS temporary binary files will be written to /local/scratch/fzahari/196913.share
GAMESS supplementary output files will be written to /work1/quantum/fzahari/scr
Copying input file ang_var-1480.inp to your run's scratch directory...
cp ang_var-1480.inp /local/scratch/fzahari/196913.share/ang_var-1480.F05
unset echo
setenv I_MPI_WAIT_MODE enable
setenv I_MPI_PIN disable
setenv I_MPI_DEBUG 0
setenv I_MPI_STATS 0
setenv I_MPI_FABRICS dapl
setenv I_MPI_DAT_LIBRARY libdat2.so
unset echo
MPI kickoff will run GAMESS on 16 cores in 1 nodes.
The binary to be executed is /home/mschmidt/gamess/gamess.132.x
MPI will run 16 compute processes and 16 data servers,
    placing 16 of each process type onto each node.
The scratch disk space on each node is /local/scratch/fzahari/196913.share, with free space
Filesystem           1K-blocks      Used Available Use% Mounted on
/dev/sda7            2670838024   1141556 2534025684   1% /local
setenv I_MPI_HYDRA_ENV all
setenv I_MPI_PERHOST 32
unset echo
mpiexec.hydra -f /local/scratch/fzahari/196913.share/ang_var-1480.processes.mpd -n 32 /home/mschmidt/gamess/gamess.132.x
          ******************************************************
          *         GAMESS VERSION =  5 DEC 2014 (R1)          *
          *             FROM IOWA STATE UNIVERSITY             *
          * M.W.SCHMIDT, K.K.BALDRIDGE, J.A.BOATZ, S.T.ELBERT, *
          *   M.S.GORDON, J.H.JENSEN, S.KOSEKI, N.MATSUNAGA,   *
          *          K.A.NGUYEN, S.J.SU, T.L.WINDUS,           *
          *       TOGETHER WITH M.DUPUIS, J.A.MONTGOMERY       *
          *         J.COMPUT.CHEM.  14, 1347-1363(1993)        *
          **************** 64 BIT INTEL VERSION ****************

  SINCE 1993, STUDENTS AND POSTDOCS WORKING AT IOWA STATE UNIVERSITY
  AND ALSO IN THEIR VARIOUS JOBS AFTER LEAVING ISU HAVE MADE IMPORTANT
  CONTRIBUTIONS TO THE CODE:
     IVANA ADAMOVIC, CHRISTINE AIKENS, YURI ALEXEEV, POOJA ARORA,
     ANDREY ASADCHEV, ROB BELL, PRADIPTA BANDYOPADHYAY, JONATHAN BENTZ,
     BRETT BODE, KURT BRORSEN, CALEB CARLIN, GALINA CHABAN, WEI CHEN,
     CHEOL HO CHOI, PAUL DAY, ALBERT DEFUSCO, NUWAN DESILVA, TIM DUDLEY,
     DMITRI FEDOROV, GRAHAM FLETCHER, MARK FREITAG, KURT GLAESEMANN,
     DAN KEMP, GRANT MERRILL, NORIYUKI MINEZAWA, JONATHAN MULLIN,
     TAKESHI NAGATA, SEAN NEDD, HEATHER NETZLOFF, BOSILJKA NJEGIC, RYAN OLSON,
     MIKE PAK, SPENCER PRUITT, LUKE ROSKOP, JIM SHOEMAKER, LYUDMILA SLIPCHENKO,
     TONY SMITH, SAROM SOK, JIE SONG, TETSUYA TAKETSUGU, SIMON WEBB,
     PENG XU, SOOHAENG YOO, FEDERICO ZAHARIEV

  ADDITIONAL CODE HAS BEEN PROVIDED BY COLLABORATORS IN OTHER GROUPS:
     IOWA STATE UNIVERSITY:
          JOE IVANIC, AARON WEST, LAIMUTIS BYTAUTAS, KLAUS RUEDENBERG
     UNIVERSITY OF TOKYO: KIMIHIKO HIRAO, TAKAHITO NAKAJIMA,
          TAKAO TSUNEDA, MUNEAKI KAMIYA, SUSUMU YANAGISAWA,
          KIYOSHI YAGI, MAHITO CHIBA, SEIKEN TOKURA, NAOAKI KAWAKAMI
     UNIVERSITY OF AARHUS: FRANK JENSEN
     UNIVERSITY OF IOWA: VISVALDAS KAIRYS, HUI LI
     NATIONAL INST. OF STANDARDS AND TECHNOLOGY: WALT STEVENS, DAVID GARMER
     UNIVERSITY OF PISA: BENEDETTA MENNUCCI, JACOPO TOMASI
     UNIVERSITY OF MEMPHIS: HENRY KURTZ, PRAKASHAN KORAMBATH
     UNIVERSITY OF ALBERTA: TOBY ZENG, MARIUSZ KLOBUKOWSKI
     UNIVERSITY OF NEW ENGLAND: MARK SPACKMAN
     MIE UNIVERSITY: HIROAKI UMEDA
     NAT. INST. OF ADVANCED INDUSTRIAL SCIENCE AND TECHNOLOGY: KAZUO KITAURA
     MICHIGAN STATE UNIVERSITY:
          KAROL KOWALSKI, MARTA WLOCH, JEFFREY GOUR, JESSE LUTZ,
          WEI LI, PIOTR PIECUCH
     UNIVERSITY OF SILESIA: MONIKA MUSIAL, STANISLAW KUCHARSKI
     FACULTES UNIVERSITAIRES NOTRE-DAME DE LA PAIX:
          OLIVIER QUINET, BENOIT CHAMPAGNE
     UNIVERSITY OF CALIFORNIA - SANTA BARBARA: BERNARD KIRTMAN
     INSTITUTE FOR MOLECULAR SCIENCE:
          KAZUYA ISHIMURA, MICHIO KATOUDA, AND SHIGERU NAGASE
     UNIVERSITY OF NOTRE DAME: ANNA POMOGAEVA, DAN CHIPMAN
     KYUSHU UNIVERSITY:
          HARUYUKI NAKANO,
          FENG LONG GU, JACEK KORCHOWIEC, MARCIN MAKOWSKI, AND YURIKO AOKI,
          HIROTOSHI MORI AND EISAKU MIYOSHI
     PENNSYLVANIA STATE UNIVERSITY:
          TZVETELIN IORDANOV, CHET SWALINA, JONATHAN SKONE,
          SHARON HAMMES-SCHIFFER
     WASEDA UNIVERSITY:
          MASATO KOBAYASHI, TOMOKO AKAMA, TSUGUKI TOUMA,
          TAKESHI YOSHIKAWA, YASUHIRO IKABATA, HIROMI NAKAI
     NANJING UNIVERSITY: SHUHUA LI
     UNIVERSITY OF NEBRASKA:
          PEIFENG SU, DEJUN SI, NANDUN THELLAMUREGE, YALI WANG, HUI LI
     UNIVERSITY OF ZURICH: ROBERTO PEVERATI, KIM BALDRIDGE
     N. COPERNICUS UNIVERSITY AND JACKSON STATE UNIVERSITY:
          MARIA BARYSZ
     UNIVERSITY OF COPENHAGEN: CASPER STEINMANN
     TOKYO INSTITUTE OF TECHNOLOGY: HIROYA NAKATA
     NAGOYA UNIVERSITY: YOSHIO NISHIMOTO, STEPHAN IRLE


 PARALLEL VERSION RUNNING ON       16 PROCESSORS IN        1 NODES.

 EXECUTION OF GAMESS BEGUN Sun Jun 12 13:49:18 2016

            ECHO OF THE FIRST FEW INPUT CARDS -
 INPUT CARD> $ZMAT DLC=.T. AUTO=.T. $END                                                    
 INPUT CARD> $ZMAT IFZMAT(1)=2, 1 , 3 , 2  FVALUE(1)= 148.0 $END                            
 INPUT CARD> $CONTRL COORD=UNIQUE NZVAR= 39 $END                                            
 INPUT CARD> $CONTRL ICHARG=+3 MULT=1                                                       
 INPUT CARD>         MPLEVL=2                                                               
 INPUT CARD>         SCFTYP=RHF                                                             
 INPUT CARD>         MAXIT=200 ISPHER=1 ICUT=11                                             
 INPUT CARD>         RUNTYP=OPTIMIZE                                                        
 INPUT CARD>         PP=READ                                                                
 INPUT CARD>         $END                                                                   
 INPUT CARD> $SCF    DIRSCF=.T. FDIFF=.F. $END                                              
 INPUT CARD> $TRANS  DIRTRF=.T. $END                                                        
 INPUT CARD> $SYSTEM MWORDS=300 MEMDDI=300 $END                                             
 INPUT CARD> $GUESS  GUESS=HUCKEL $END                                                      
 INPUT CARD> $BASIS  BASNAM(1)=METAL,                                                       
 INPUT CARD>                   LIGP,                                                        
 INPUT CARD>                   LIGO,                                                        
 INPUT CARD>                   LIGC,                                                        
 INPUT CARD>                   LIGC,                                                        
 INPUT CARD>                   LIGC,                                                        
 INPUT CARD>                   LIGH,                                                        
 INPUT CARD>                   LIGH,                                                        
 INPUT CARD>                   LIGH,                                                        
 INPUT CARD>                   LIGH,                                                        
 INPUT CARD>                   LIGH,                                                        
 INPUT CARD>                   LIGH,                                                        
 INPUT CARD>                   LIGH,                                                        
 INPUT CARD>                   LIGH,                                                        
 INPUT CARD>                   LIGH                                                         
 INPUT CARD> $END                                                                           
 INPUT CARD> $DATA                                                                          
 INPUT CARD>                                                                                
 INPUT CARD> C1                                                                             
 INPUT CARD> LA         57.0   0.3135193724   0.8876615767  -4.0307645172                   
 INPUT CARD> P          15.0   0.4063735732   0.0898184673  -0.4617130548                   
 INPUT CARD> O           8.0  -0.1151882715   0.6290225777  -1.9870430417                   
 INPUT CARD> C           6.0  -0.8312656945   0.6346133565   0.6779957420                   
 INPUT CARD> C           6.0   1.9838365026   0.8434047663  -0.1474861743                   
 INPUT CARD> C           6.0   0.5106422487  -1.6797138020  -0.5441058551                   
 INPUT CARD> H           1.0  -0.9020669978   1.7222124866   0.6777765394                   
 INPUT CARD> H           1.0  -0.5330565374   0.3008618920   1.6768192579                   
 INPUT CARD> H           1.0  -1.7957122012   0.1897075587   0.4325307169                   
 INPUT CARD> H           1.0   2.7581284239   0.4956056401  -0.8308874787                   
 INPUT CARD> H           1.0   2.2799503966   0.5315826850   0.8606267468                   
 INPUT CARD> H           1.0   1.9065725072   1.9306783401  -0.1465381466                   
 INPUT CARD> H           1.0   1.2846497074  -2.0209332918  -1.2306082684                   
 INPUT CARD> H           1.0  -0.4586640901  -2.1128703027  -0.7913911365                   
 INPUT CARD> H           1.0   0.7862517138  -2.0230776949   0.4592814782                   
 INPUT CARD> $END                                                                           
 INPUT CARD>!                                                                               
  300000000 WORDS OF MEMORY AVAILABLE

     BASIS OPTIONS
     -------------
     GBASIS=             IGAUSS=       0      POLAR=NONE    
     NDFUNC=       0     NFFUNC=       0     DIFFSP=       F
     NPFUNC=       0      DIFFS=       F     BASNAM=METAL   

 USING BASNAM FOR ATOM CUSTOMIZED BASIS CONSTRUCTION
     ----------------
     ATOM  BASIS NAME
     ----------------
       1   METAL   
       2   LIGP    
       3   LIGO    
       4   LIGC    
       5   LIGC    
       6   LIGC    
       7   LIGH    
       8   LIGH    
       9   LIGH    
      10   LIGH    
      11   LIGH    
      12   LIGH    
      13   LIGH    
      14   LIGH    
      15   LIGH    
 NOW LOCATING ALL   15 BASIS SETS IN YOUR INPUT FILE...
 FOUND BASIS SET  $METAL 
  SBKJC                        
                               
  $END                         
 FOUND BASIS SET  $LIGP  
  CCT                          
                               
  $END                         
 FOUND BASIS SET  $LIGO  
  CCT                          
                               
  $END                         
 FOUND BASIS SET  $LIGC  
  CCT                          
                               
  $END                         
 FOUND BASIS SET  $LIGH  
  CCT                          
                               
  $END                         
    5 UNIQUE ATOM CUSTOMIZED BASIS SETS WERE FOUND.

     SEARCHING FOR $MCP
     $MCP GROUP NOT FOUND


     RUN TITLE
     ---------
                                                                                 

 THE POINT GROUP OF THE MOLECULE IS C1      
 THE ORDER OF THE PRINCIPAL AXIS IS     0

 ATOM      ATOMIC                      COORDINATES (BOHR)
           CHARGE         X                   Y                   Z
 LA         57.0     0.5924657057        1.6774371498       -7.6170404585
 P          15.0     0.7679347020        0.1697322918       -0.8725111585
 O           8.0    -0.2176742701        1.1886803119       -3.7549668746
 C           6.0    -1.5708643856        1.1992453519        1.2812261732
 C           6.0     3.7489073944        1.5938039050       -0.2787084564
 C           6.0     0.9649739278       -3.1741988236       -1.0282109745
 H           1.0    -1.7046594484        3.2545096923        1.2808119404
 H           1.0    -1.0073307916        0.5685465360        3.1687289284
 H           1.0    -3.3934040131        0.3584953037        0.8173645362
 H           1.0     5.2121069601        0.9365588578       -1.5701496614
 H           1.0     4.3084815152        1.0045456145        1.6263487292
 H           1.0     3.6028996143        3.6484530332       -0.2769169438
 H           1.0     2.4276359372       -3.8190101610       -2.3255124255
 H           1.0    -0.8667494507       -3.9927459197       -1.4955123971
 H           1.0     1.4858002965       -3.8230624952        0.8679161450

          INTERNUCLEAR DISTANCES (ANGS.)
          ------------------------------

                1 LA         2 P          3 O          4 C          5 C     

   1 LA      0.0000000    3.6583198    2.1041582 *  4.8525240    4.2275015  
   2 P       3.6583198    0.0000000    1.6998233 *  1.7684707 *  1.7762376 *
   3 O       2.1041582 *  1.6998233 *  0.0000000    2.7595706 *  2.7992560 *
   4 C       4.8525240    1.7684707 *  2.7595706 *  0.0000000    2.9410567 *
   5 C       4.2275015    1.7762376 *  2.7992560 *  2.9410567 *  0.0000000  
   6 C       4.3344045    1.7745154 *  2.7935632 *  2.9411493 *  2.9485142 *
   7 H       4.9340130    2.3822602 *  2.9858844 *  1.0899013 *  3.1275870  
   8 H       5.7997877    2.3452908 *  3.7021872    1.0945169 *  3.1555021  
   9 H       4.9856797    2.3788299 *  2.9785056 *  1.0901153 *  3.8792690  
  10 H       4.0458663    2.4148921 *  3.1000717    3.8961265    1.0897383 *
  11 H       5.2838766    2.3353861 *  3.7222852    3.1182744    1.0959964 *
  12 H       4.3258429    2.3955578 *  3.0280823    3.1393309    1.0900158 *
  13 H       4.1525767    2.4120203 *  3.0909555    3.8950989    3.1410903  
  14 H       4.4825215    2.3893128 *  3.0109028    3.1379286    3.8884425  
  15 H       5.3718146    2.3359941 *  3.7189694    3.1188973    3.1652959  

                6 C          7 H          8 H          9 H         10 H     

   1 LA      4.3344045    4.9340130    5.7997877    4.9856797    4.0458663  
   2 P       1.7745154 *  2.3822602 *  2.3452908 *  2.3788299 *  2.4148921 *
   3 O       2.7935632 *  2.9858844 *  3.7021872    2.9785056 *  3.1000717  
   4 C       2.9411493 *  1.0899013 *  1.0945169 *  1.0901153 *  3.8961265  
   5 C       2.9485142 *  3.1275870    3.1555021    3.8792690    1.0897383 *
   6 C       0.0000000    3.8809595    3.1534894    3.1253522    3.1409318  
   7 H       3.8809595    0.0000000    1.7760891 *  1.7908988 *  4.1445943  
   8 H       3.1534894    1.7760891 *  0.0000000    1.7762062 *  4.1422719  
   9 H       3.1253522    1.7908988 *  1.7762062 *  0.0000000    4.7357432  
  10 H       3.1409318    4.1445943    4.1422719    4.7357432    0.0000000  
  11 H       3.1612588    3.4023915    2.9380964 *  4.1123193    1.7581720 *
  12 H       3.8912225    2.9345202 *  3.4543775    4.1319744    1.8035840 *
  13 H       1.0894053 *  4.7365391    4.1410052    4.1402408    2.9434477 *
  14 H       1.0901052 *  4.1307287    3.4530711    2.9304517 *  4.1416737  
  15 H       1.0957397 *  4.1140441    2.9366082 *  3.4005399    3.4491447  

               11 H         12 H         13 H         14 H         15 H     

   1 LA      5.2838766    4.3258429    4.1525767    4.4825215    5.3718146  
   2 P       2.3353861 *  2.3955578 *  2.4120203 *  2.3893128 *  2.3359941 *
   3 O       3.7222852    3.0280823    3.0909555    3.0109028    3.7189694  
   4 C       3.1182744    3.1393309    3.8950989    3.1379286    3.1188973  
   5 C       1.0959964 *  1.0900158 *  3.1410903    3.8884425    3.1652959  
   6 C       3.1612588    3.8912225    1.0894053 *  1.0901052 *  1.0957397 *
   7 H       3.4023915    2.9345202 *  4.7365391    4.1307287    4.1140441  
   8 H       2.9380964 *  3.4543775    4.1410052    3.4530711    2.9366082 *
   9 H       4.1123193    4.1319744    4.1402408    2.9304517 *  3.4005399  
  10 H       1.7581720 *  1.8035840 *  2.9434477 *  4.1416737    3.4491447  
  11 H       0.0000000    1.7638766 *  3.4466252    4.1499764    2.9863864 *
  12 H       1.7638766 *  0.0000000    4.1445423    4.7286854    4.1538323  
  13 H       3.4466252    4.1445423    0.0000000    1.8001409 *  1.7618549 *
  14 H       4.1499764    4.7286854    1.8001409 *  0.0000000    1.7669352 *
  15 H       2.9863864 *  4.1538323    1.7618549 *  1.7669352 *  0.0000000  

  * ... LESS THAN  3.000


     ATOMIC BASIS SET
     ----------------
 THE CONTRACTED PRIMITIVE FUNCTIONS HAVE BEEN UNNORMALIZED
 THE CONTRACTED BASIS FUNCTIONS ARE NOW NORMALIZED TO UNITY

  SHELL TYPE  PRIMITIVE        EXPONENT          CONTRACTION COEFFICIENT(S)

 LA        

      1   L       1             9.1730000   -0.054833023521   -0.009797991527
      1   L       2             3.1200000    0.676604290237    0.231261800020
      1   L       3             2.1040000   -1.034429443730   -0.601214480110
      1   L       4             1.3200000   -0.518907222591    0.195188831214
      1   L       5             0.4960000    1.631603699894    1.076136069429

      2   D       6             1.2380000   -0.053797021791
      2   D       7             0.6061000    0.380144153981
      2   D       8             0.2518000    0.720349291785

      3   D       9             0.0978700    1.000000000000

      4   L      10             0.6182000   -0.107095028128   -0.051868986063
      4   L      11             0.0454600    1.033448271434    1.008107729120

      5   L      12             0.0177500    1.000000000000    1.000000000000

      6   L      13             0.2004000    1.000000000000    1.000000000000

      7   D      14             0.0353600    1.000000000000

 P         

      8   S      15        312400.0000000    0.000057689641
      8   S      16         46800.0000000    0.000448246591
      8   S      17         10650.0000000    0.002349131061
      8   S      18          3018.0000000    0.009781571802
      8   S      19           986.8000000    0.034142936511
      8   S      20           357.4000000    0.100192955985
      8   S      21           139.6000000    0.234346168617
      8   S      22            57.6300000    0.382391849918
      8   S      23            24.6000000    0.318052941833
      8   S      24            10.1200000    0.070770999093
      8   S      25             4.2830000   -0.001817789630
      8   S      26             1.8050000    0.002161561737
      8   S      27             0.2782000    0.000432249354

      9   S      28        312400.0000000   -0.000016380204
      9   S      29         46800.0000000   -0.000127233535
      9   S      30         10650.0000000   -0.000668625166
      9   S      31          3018.0000000   -0.002795303744
      9   S      32           986.8000000   -0.009928227435
      9   S      33           357.4000000   -0.030244566456
      9   S      34           139.6000000   -0.077884705328
      9   S      35            57.6300000   -0.156724571545
      9   S      36            24.6000000   -0.198042753651
      9   S      37            10.1200000    0.037971251521
      9   S      38             4.2830000    0.552751544147
      9   S      39             1.8050000    0.542611452452
      9   S      40             0.2782000   -0.009675942874

     10   S      41        312400.0000000    0.000006865735
     10   S      42         46800.0000000    0.000053281983
     10   S      43         10650.0000000    0.000280421002
     10   S      44          3018.0000000    0.001170789768
     10   S      45           986.8000000    0.004173591138
     10   S      46           357.4000000    0.012720496749
     10   S      47           139.6000000    0.033152766352
     10   S      48            57.6300000    0.067671246836
     10   S      49            24.6000000    0.089831018862
     10   S      50            10.1200000   -0.020305232360
     10   S      51             4.2830000   -0.313280408979
     10   S      52             1.8050000   -0.563687905527
     10   S      53             0.2782000    1.117494073734

     11   S      54             0.6158000    1.000000000000

     12   S      55             0.1055000    1.000000000000

     13   P      56           504.9000000    0.002433660431
     13   P      57           119.4000000    0.019305559477
     13   P      58            37.9600000    0.088473106893
     13   P      59            13.9500000    0.254701981099
     13   P      60             5.4570000    0.440199242653
     13   P      61             2.1770000    0.383632006272
     13   P      62             0.2877000   -0.003946337074

     14   P      63           504.9000000   -0.000954298933
     14   P      64           119.4000000   -0.007664025747
     14   P      65            37.9600000   -0.035465925259
     14   P      66            13.9500000   -0.106164716437
     14   P      67             5.4570000   -0.187210586037
     14   P      68             2.1770000   -0.181495819791
     14   P      69             0.2877000    0.991672644618

     15   P      70             0.8010000    1.000000000000

     16   P      71             0.0971400    1.000000000000

     17   D      72             0.6480000    1.000000000000

     18   D      73             0.2180000    1.000000000000

     19   F      74             0.4520000    1.000000000000

     20   D      75             3.1200000    1.000000000000

 O         

     21   S      76         15330.0000000    0.000520198307
     21   S      77          2299.0000000    0.004023344781
     21   S      78           522.4000000    0.020729083329
     21   S      79           147.3000000    0.081082327080
     21   S      80            47.5500000    0.236226352118
     21   S      81            16.7600000    0.443518209420
     21   S      82             6.2070000    0.358670588689
     21   S      83             0.6882000   -0.008349797237

     22   S      84         15330.0000000   -0.000197236012
     22   S      85          2299.0000000   -0.001535010700
     22   S      86           522.4000000   -0.007951183914
     22   S      87           147.3000000   -0.032113452892
     22   S      88            47.5500000   -0.100269643049
     22   S      89            16.7600000   -0.234047111838
     22   S      90             6.2070000   -0.301410927756
     22   S      91             0.6882000    1.034919649508

     23   S      92             1.7520000    1.000000000000

     24   S      93             0.2384000    1.000000000000

     25   P      94            34.4600000    0.041163489568
     25   P      95             7.7490000    0.257762835858
     25   P      96             2.2800000    0.802419274427

     26   P      97             0.7156000    1.000000000000

     27   P      98             0.2140000    1.000000000000

     28   D      99             2.3140000    1.000000000000

     29   D     100             0.6450000    1.000000000000

     30   F     101             1.4280000    1.000000000000

 C         

     31   S     102          8236.0000000    0.000542430189
     31   S     103          1235.0000000    0.004196427901
     31   S     104           280.8000000    0.021540914108
     31   S     105            79.2700000    0.083614949614
     31   S     106            25.5900000    0.239871618922
     31   S     107             8.9970000    0.443751820060
     31   S     108             3.3190000    0.353579696469
     31   S     109             0.3643000   -0.009176366076

     32   S     110          8236.0000000   -0.000196392234
     32   S     111          1235.0000000   -0.001525950274
     32   S     112           280.8000000   -0.007890449028
     32   S     113            79.2700000   -0.031514870532
     32   S     114            25.5900000   -0.096910008320
     32   S     115             8.9970000   -0.220541526288
     32   S     116             3.3190000   -0.296069112937
     32   S     117             0.3643000    1.040503432950

     33   S     118             0.9059000    1.000000000000

     34   S     119             0.1285000    1.000000000000

     35   P     120            18.7100000    0.039426387165
     35   P     121             4.1330000    0.244088984924
     35   P     122             1.2000000    0.815492008943

     36   P     123             0.3827000    1.000000000000

     37   P     124             0.1209000    1.000000000000

     38   D     125             1.0970000    1.000000000000

     39   D     126             0.3180000    1.000000000000

     40   F     127             0.7610000    1.000000000000

 C         

     41   S     128          8236.0000000    0.000542430189
     41   S     129          1235.0000000    0.004196427901
     41   S     130           280.8000000    0.021540914108
     41   S     131            79.2700000    0.083614949614
     41   S     132            25.5900000    0.239871618922
     41   S     133             8.9970000    0.443751820060
     41   S     134             3.3190000    0.353579696469
     41   S     135             0.3643000   -0.009176366076

     42   S     136          8236.0000000   -0.000196392234
     42   S     137          1235.0000000   -0.001525950274
     42   S     138           280.8000000   -0.007890449028
     42   S     139            79.2700000   -0.031514870532
     42   S     140            25.5900000   -0.096910008320
     42   S     141             8.9970000   -0.220541526288
     42   S     142             3.3190000   -0.296069112937
     42   S     143             0.3643000    1.040503432950

     43   S     144             0.9059000    1.000000000000

     44   S     145             0.1285000    1.000000000000

     45   P     146            18.7100000    0.039426387165
     45   P     147             4.1330000    0.244088984924
     45   P     148             1.2000000    0.815492008943

     46   P     149             0.3827000    1.000000000000

     47   P     150             0.1209000    1.000000000000

     48   D     151             1.0970000    1.000000000000

     49   D     152             0.3180000    1.000000000000

     50   F     153             0.7610000    1.000000000000

 C         

     51   S     154          8236.0000000    0.000542430189
     51   S     155          1235.0000000    0.004196427901
     51   S     156           280.8000000    0.021540914108
     51   S     157            79.2700000    0.083614949614
     51   S     158            25.5900000    0.239871618922
     51   S     159             8.9970000    0.443751820060
     51   S     160             3.3190000    0.353579696469
     51   S     161             0.3643000   -0.009176366076

     52   S     162          8236.0000000   -0.000196392234
     52   S     163          1235.0000000   -0.001525950274
     52   S     164           280.8000000   -0.007890449028
     52   S     165            79.2700000   -0.031514870532
     52   S     166            25.5900000   -0.096910008320
     52   S     167             8.9970000   -0.220541526288
     52   S     168             3.3190000   -0.296069112937
     52   S     169             0.3643000    1.040503432950

     53   S     170             0.9059000    1.000000000000

     54   S     171             0.1285000    1.000000000000

     55   P     172            18.7100000    0.039426387165
     55   P     173             4.1330000    0.244088984924
     55   P     174             1.2000000    0.815492008943

     56   P     175             0.3827000    1.000000000000

     57   P     176             0.1209000    1.000000000000

     58   D     177             1.0970000    1.000000000000

     59   D     178             0.3180000    1.000000000000

     60   F     179             0.7610000    1.000000000000

 H         

     61   S     180            33.8700000    0.025494863235
     61   S     181             5.0950000    0.190362765893
     61   S     182             1.1590000    0.852162022245

     62   S     183             0.3258000    1.000000000000

     63   S     184             0.1027000    1.000000000000

     64   P     185             1.4070000    1.000000000000

     65   P     186             0.3880000    1.000000000000

     66   D     187             1.0570000    1.000000000000

 H         

     67   S     188            33.8700000    0.025494863235
     67   S     189             5.0950000    0.190362765893
     67   S     190             1.1590000    0.852162022245

     68   S     191             0.3258000    1.000000000000

     69   S     192             0.1027000    1.000000000000

     70   P     193             1.4070000    1.000000000000

     71   P     194             0.3880000    1.000000000000

     72   D     195             1.0570000    1.000000000000

 H         

     73   S     196            33.8700000    0.025494863235
     73   S     197             5.0950000    0.190362765893
     73   S     198             1.1590000    0.852162022245

     74   S     199             0.3258000    1.000000000000

     75   S     200             0.1027000    1.000000000000

     76   P     201             1.4070000    1.000000000000

     77   P     202             0.3880000    1.000000000000

     78   D     203             1.0570000    1.000000000000

 H         

     79   S     204            33.8700000    0.025494863235
     79   S     205             5.0950000    0.190362765893
     79   S     206             1.1590000    0.852162022245

     80   S     207             0.3258000    1.000000000000

     81   S     208             0.1027000    1.000000000000

     82   P     209             1.4070000    1.000000000000

     83   P     210             0.3880000    1.000000000000

     84   D     211             1.0570000    1.000000000000

 H         

     85   S     212            33.8700000    0.025494863235
     85   S     213             5.0950000    0.190362765893
     85   S     214             1.1590000    0.852162022245

     86   S     215             0.3258000    1.000000000000

     87   S     216             0.1027000    1.000000000000

     88   P     217             1.4070000    1.000000000000

     89   P     218             0.3880000    1.000000000000

     90   D     219             1.0570000    1.000000000000

 H         

     91   S     220            33.8700000    0.025494863235
     91   S     221             5.0950000    0.190362765893
     91   S     222             1.1590000    0.852162022245

     92   S     223             0.3258000    1.000000000000

     93   S     224             0.1027000    1.000000000000

     94   P     225             1.4070000    1.000000000000

     95   P     226             0.3880000    1.000000000000

     96   D     227             1.0570000    1.000000000000

 H         

     97   S     228            33.8700000    0.025494863235
     97   S     229             5.0950000    0.190362765893
     97   S     230             1.1590000    0.852162022245

     98   S     231             0.3258000    1.000000000000

     99   S     232             0.1027000    1.000000000000

    100   P     233             1.4070000    1.000000000000

    101   P     234             0.3880000    1.000000000000

    102   D     235             1.0570000    1.000000000000

 H         

    103   S     236            33.8700000    0.025494863235
    103   S     237             5.0950000    0.190362765893
    103   S     238             1.1590000    0.852162022245

    104   S     239             0.3258000    1.000000000000

    105   S     240             0.1027000    1.000000000000

    106   P     241             1.4070000    1.000000000000

    107   P     242             0.3880000    1.000000000000

    108   D     243             1.0570000    1.000000000000

 H         

    109   S     244            33.8700000    0.025494863235
    109   S     245             5.0950000    0.190362765893
    109   S     246             1.1590000    0.852162022245

    110   S     247             0.3258000    1.000000000000

    111   S     248             0.1027000    1.000000000000

    112   P     249             1.4070000    1.000000000000

    113   P     250             0.3880000    1.000000000000

    114   D     251             1.0570000    1.000000000000

 TOTAL NUMBER OF BASIS SET SHELLS             =  114
 NUMBER OF CARTESIAN GAUSSIAN BASIS FUNCTIONS =  354
 NOTE: THIS RUN WILL RESTRICT THE MO VARIATION SPACE TO SPHERICAL HARMONICS.
 THE NUMBER OF ORBITALS KEPT IN THE VARIATIONAL SPACE WILL BE PRINTED LATER.
 NUMBER OF ELECTRONS                          =  104
 CHARGE OF MOLECULE                           =    3
 SPIN MULTIPLICITY                            =    1
 NUMBER OF OCCUPIED ORBITALS (ALPHA)          =   52
 NUMBER OF OCCUPIED ORBITALS (BETA )          =   52
 TOTAL NUMBER OF ATOMS                        =   15
 THE NUCLEAR REPULSION ENERGY IS      673.6708256717
 NOTE THIS RUN IS USING CORE POTENTIALS, AND THE NUMBER OF ELECTRONS,
 OCCUPIED ORBITALS, AND NUCLEAR REPULSION ENERGY WILL BE ADJUSTED BELOW
 AFTER REMOVAL OF THE CORE CHARGES.

     $CONTRL OPTIONS
     ---------------
 SCFTYP=RHF          RUNTYP=OPTIMIZE     EXETYP=RUN     
 MPLEVL=       2     CITYP =NONE         CCTYP =NONE         VBTYP =NONE    
 DFTTYP=NONE         TDDFT =NONE    
 MULT  =       1     ICHARG=       3     NZVAR =      39     COORD =UNIQUE  
 PP    =READ         RELWFN=NONE         LOCAL =NONE         NUMGRD=       F
 ISPHER=       1     NOSYM =       0     MAXIT =     200     UNITS =ANGS    
 PLTORB=       F     MOLPLT=       F     AIMPAC=       F     FRIEND=        
 NPRINT=       7     IREST =       0     GEOM  =INPUT   
 NORMF =       0     NORMP =       0     ITOL  =      20     ICUT  =      11
 INTTYP=BEST         GRDTYP=BEST         QMTTOL= 1.0E-06

     $SYSTEM OPTIONS
     ---------------
  REPLICATED MEMORY=   300000000 WORDS (ON EVERY NODE).
 DISTRIBUTED MEMDDI=         300 MILLION WORDS IN AGGREGATE,
 MEMDDI DISTRIBUTED OVER  16 PROCESSORS IS    18750000 WORDS/PROCESSOR.
 TOTAL MEMORY REQUESTED ON EACH PROCESSOR=   318750000 WORDS.
 TIMLIM=      525600.00 MINUTES, OR     365.0 DAYS.
 PARALL= T  BALTYP=  DLB     KDIAG=    0  COREFL= F
 MXSEQ2=     300 MXSEQ3=     150  mem10=         0

          --------------
          ECP POTENTIALS
          --------------

 PARAMETERS FOR "LA-ECP  " ON ATOM    1 WITH ZCORE  46 AND LMAX  4 ARE
 FOR L= 4      COEFF    N           ZETA
    1       -2.85665    1        1.42345
 FOR L= 0      COEFF    N           ZETA
    1        8.85347    0       22.29739
    2      -68.41778    2        1.64320
    3      110.12463    2        1.85122
 FOR L= 1      COEFF    N           ZETA
    1        2.98675    0        1.77635
    2      -35.51815    2        3.98941
    3       53.65423    2        2.47524
 FOR L= 2      COEFF    N           ZETA
    1        1.67298    0        1.52169
    2       18.46625    2        1.52182
 FOR L= 3      COEFF    N           ZETA
    1       -4.64430    1        2.67762
    2      -14.43101    1       10.06608

 THE ECP RUN REMOVES   46 CORE ELECTRONS, AND THE SAME NUMBER OF PROTONS.
 NUMBER OF ELECTRONS KEPT IN THE CALCULATION IS =   58
 NUMBER OF OCCUPIED ORBITALS (ALPHA) KEPT IS    =   29
 NUMBER OF OCCUPIED ORBITALS (BETA ) KEPT IS    =   29
 THE ADJUSTED NUCLEAR REPULSION ENERGY=      336.8830517369
          ECP ANGULAR INTS.........     0.02 SECONDS

          ----------------
          PROPERTIES INPUT
          ----------------

     MOMENTS            FIELD           POTENTIAL          DENSITY
 IEMOM =       1   IEFLD =       0   IEPOT =       0   IEDEN =       0
 WHERE =COMASS     WHERE =NUCLEI     WHERE =NUCLEI     WHERE =NUCLEI  
 OUTPUT=BOTH       OUTPUT=BOTH       OUTPUT=BOTH       OUTPUT=BOTH    
 IEMINT=       0   IEFINT=       0                     IEDINT=       0
                                                       MORB  =       0
          EXTRAPOLATION IN EFFECT
          SOSCF IN EFFECT
 ORBITAL PRINTING OPTION: NPREO=     1   354     2     1

     -------------------------------
     INTEGRAL TRANSFORMATION OPTIONS
     -------------------------------
     NWORD  =            0
     CUTOFF = 1.0E-09     MPTRAN =       0
     DIRTRF =       T     AOINTS =DUP     

          ----------------------
          INTEGRAL INPUT OPTIONS
          ----------------------
 NOPK  =       1 NORDER=       0 SCHWRZ=       T

          -----------------------
          MP2 CONTROL INFORMATION
          -----------------------
          NACORE =       13  NBCORE =       13
          LMOMP2 =        F  AOINTS = DUP     
          METHOD =        2  NWORD  =               0
          MP2PRP =        F  OSPT   = NONE    
          CUTOFF = 1.00E-09  CPHFBS = BASISAO 
          CODE   = DDI     

          NUMBER OF CORE -A-  ORBITALS =    13
          NUMBER OF CORE -B-  ORBITALS =    13
          NUMBER OF OCC. -A-  ORBITALS =    29
          NUMBER OF OCC. -B-  ORBITALS =    29
          NUMBER OF MOLECULAR ORBITALS =   354
          NUMBER OF   BASIS  FUNCTIONS =   354

 
 
 -----------------------------------------------
  STATISTICS ON AUTOMATIC COORDINATE GENERATION 
 -----------------------------------------------
  NUMBER OF USER SPECIFIED BONDS                              0
  NUMBER OF BONDS                                            14
  NUMBER OF ANGLES                                           25
  NUMBER OF TORSIONS                                         30
  NUMBER OF EXTRA COORD.                                      0
  NUMBER OF EXTRA COORD. FOR CONSTRAINTS                      0
  NUMBER OF CONSTRAINED COORD.                                1
 
  TOTAL NUMBER OF PRIMITIVES                                 69
 -----------------------------------------------

   --- ENCODED Z MATRIX ---
 COORD  TYPE   I   J   K   L   M   N
    1      2    1   3   2
    2      1    1   3
    3      1    2   4
    4      1    2   3
    5      1    2   6
    6      1    2   5
    7      1    4   8
    8      1    4   7
    9      1    4   9
   10      1    5  12
   11      1    5  11
   12      1    5  10
   13      1    6  15
   14      1    6  14
   15      1    6  13
   16      2    2   5  11
   17      2    2   4   8
   18      2    2   6  13
   19      2    2   6  14
   20      2    2   4   9
   21      2    2   5  12
   22      2    2   5  10
   23      2    2   4   7
   24      2    2   6  15
   25      2    3   2   4
   26      2    3   2   5
   27      2    3   2   6
   28      2    4   2   6
   29      2    4   2   5
   30      2    5   2   6
   31      2    7   4   9
   32      2    7   4   8
   33      2    8   4   9
   34      2   10   5  11
   35      2   10   5  12
   36      2   11   5  12
   37      2   13   6  14
   38      2   13   6  15
   39      2   14   6  15
   40      3    1   3   2   5
   41      3    1   3   2   4
   42      3    1   3   2   6
   43      3    3   2   4   8
   44      3    3   2   6  15
   45      3    3   2   6  14
   46      3    3   2   4   7
   47      3    3   2   5  10
   48      3    3   2   6  13
   49      3    3   2   5  11
   50      3    3   2   5  12
   51      3    3   2   4   9
   52      3    4   2   6  15
   53      3    4   2   6  14
   54      3    4   2   5  10
   55      3    4   2   6  13
   56      3    4   2   5  12
   57      3    4   2   5  11
   58      3    5   2   6  15
   59      3    5   2   6  14
   60      3    5   2   4   7
   61      3    5   2   6  13
   62      3    5   2   4   9
   63      3    5   2   4   8
   64      3    6   2   4   7
   65      3    6   2   5  10
   66      3    6   2   5  11
   67      3    6   2   5  12
   68      3    6   2   4   9
   69      3    6   2   4   8

          INDEP./SYM. INTERNAL COORDINATES
          --------------------------------
 CRD  1=   1.0000 (  1)
 CRD  2=  -0.1287 ( 20) -0.1147 ( 22)  0.1208 ( 23) -0.1170 ( 24) -0.2730 ( 26)
           0.3254 ( 27) -0.3917 ( 28)  0.4662 ( 29) -0.2168 ( 40)  0.1611 ( 41)
          -0.1581 ( 42)  0.1160 ( 46)  0.1066 ( 51) -0.1473 ( 53) -0.1171 ( 56)
           0.1578 ( 58)  0.1012 ( 59)  0.1629 ( 61)  0.1447 ( 65)  0.1614 ( 66)
          -0.1114 ( 69)
 CRD  3=  -0.3049 (  3)  0.1083 (  4)  0.1199 (  5)  0.2019 (  6)  0.2333 ( 18)
          -0.1527 ( 19) -0.1044 ( 21)  0.2200 ( 22) -0.2812 ( 28) -0.1678 ( 29)
           0.4192 ( 30)  0.2200 ( 40) -0.2625 ( 42)  0.1702 ( 44) -0.1424 ( 49)
          -0.1320 ( 59) -0.1201 ( 61) -0.1023 ( 63)  0.1044 ( 64)  0.1396 ( 65)
           0.1505 ( 67)  0.1171 ( 68)
 CRD  4=   0.3671 (  5) -0.3068 (  6)  0.1796 ( 19)  0.1395 ( 20) -0.1931 ( 21)
          -0.1875 ( 23) -0.2075 ( 26)  0.2446 ( 27) -0.1156 ( 29) -0.1188 ( 37)
          -0.2918 ( 41)  0.2588 ( 43) -0.1040 ( 45)  0.1960 ( 46) -0.1031 ( 47)
          -0.1564 ( 49) -0.1505 ( 50)  0.1871 ( 51)  0.1283 ( 54)  0.1041 ( 55)
          -0.1331 ( 60) -0.1419 ( 62) -0.1229 ( 64) -0.1317 ( 68)
 CRD  5=   0.3698 (  3)  0.4091 (  5)  0.4178 (  6)  0.2728 ( 16)  0.2699 ( 17)
           0.2719 ( 24) -0.1137 ( 32) -0.1128 ( 33) -0.1263 ( 34) -0.1209 ( 36)
          -0.1249 ( 38) -0.1186 ( 39)  0.1236 ( 54) -0.1258 ( 55)  0.1108 ( 59)
          -0.1200 ( 62)  0.1227 ( 64) -0.1113 ( 67)
 CRD  6=   0.2197 (  2)  0.3945 (  3)  0.3487 (  4)  0.1676 (  5)  0.1234 (  6)
          -0.1758 ( 16) -0.2236 ( 17)  0.1576 ( 18)  0.1466 ( 19)  0.2746 ( 20)
           0.1252 ( 21)  0.1342 ( 22)  0.2779 ( 23) -0.1817 ( 24)  0.1628 ( 25)
          -0.2078 ( 31) -0.1040 ( 35) -0.1211 ( 37)  0.1208 ( 52) -0.1526 ( 54)
           0.1598 ( 55) -0.1180 ( 57)  0.1119 ( 62) -0.1253 ( 64)
 CRD  7=  -0.1596 (  2) -0.3121 (  3) -0.1974 (  4)  0.2118 (  5)  0.3041 (  6)
           0.1013 ( 14) -0.2659 ( 17) -0.1326 ( 18)  0.4272 ( 19)  0.4171 ( 21)
          -0.1163 ( 24) -0.1018 ( 25)  0.1497 ( 32)  0.1228 ( 33) -0.1694 ( 35)
          -0.1329 ( 36) -0.1393 ( 37) -0.1197 ( 39)
 CRD  8=  -0.2904 (  5)  0.2505 (  6) -0.1080 (  8)  0.1056 (  9)  0.2492 ( 16)
          -0.1057 ( 18)  0.1566 ( 19)  0.4048 ( 20) -0.2443 ( 21)  0.2342 ( 22)
          -0.4189 ( 23) -0.3315 ( 24)  0.1254 ( 32) -0.1700 ( 33) -0.1946 ( 34)
           0.1840 ( 38)
 CRD  9=   0.1593 (  2) -0.1071 (  3)  0.2208 (  4)  0.4214 ( 16) -0.3193 ( 17)
          -0.3653 ( 18)  0.1591 ( 20) -0.3552 ( 22)  0.2987 ( 24)  0.1180 ( 25)
           0.1564 ( 35) -0.1456 ( 36)  0.1255 ( 37) -0.1320 ( 39)  0.1277 ( 53)
          -0.1342 ( 56)
 CRD 10=   0.1000 (  9) -0.1024 ( 14)  0.3268 ( 18) -0.4059 ( 19)  0.3797 ( 20)
           0.3952 ( 21) -0.3284 ( 22) -0.3636 ( 23)  0.1384 ( 32) -0.1334 ( 33)
           0.1359 ( 34) -0.1152 ( 36) -0.1407 ( 38)  0.1162 ( 39)
 CRD 11=  -0.1089 ( 11)  0.1224 ( 12)  0.1288 ( 13) -0.1059 ( 15) -0.3975 ( 16)
          -0.3464 ( 18) -0.1253 ( 19)  0.2010 ( 20)  0.3883 ( 22) -0.1042 ( 23)
           0.4681 ( 24) -0.1865 ( 35)  0.1522 ( 36)  0.2168 ( 37) -0.1358 ( 39)
 CRD 12=  -0.2130 (  2) -0.2978 (  4) -0.1725 (  7)  0.1021 (  8)  0.1620 ( 16)
          -0.5005 ( 17)  0.2300 ( 18) -0.2325 ( 19)  0.1973 ( 20) -0.2562 ( 21)
           0.1176 ( 22)  0.2853 ( 23) -0.1482 ( 25)  0.1007 ( 28) -0.1186 ( 30)
          -0.2203 ( 31)  0.1319 ( 33) -0.1138 ( 34)
 CRD 13=   0.2277 (  2) -0.1513 (  3)  0.4589 (  4)  0.1164 (  6) -0.1007 ( 10)
           0.1214 ( 11)  0.1540 ( 16) -0.1203 ( 20)  0.1315 ( 24) -0.1480 ( 25)
           0.1534 ( 26)  0.1066 ( 27)  0.1143 ( 28) -0.2651 ( 30) -0.1467 ( 34)
          -0.1286 ( 38) -0.1333 ( 52) -0.1361 ( 53) -0.1011 ( 55)  0.1366 ( 56)
           0.1246 ( 57) -0.1841 ( 58) -0.1870 ( 59)  0.1563 ( 60) -0.1519 ( 61)
           0.1121 ( 62)  0.1359 ( 63)  0.1049 ( 65)  0.1433 ( 66)  0.1553 ( 67)
          -0.1092 ( 68)
 CRD 14=  -0.1671 ( 10)  0.1832 ( 14)  0.1081 ( 15) -0.1309 ( 40) -0.2074 ( 41)
          -0.1432 ( 42)  0.2890 ( 43)  0.2714 ( 46) -0.1589 ( 47) -0.1409 ( 49)
          -0.1243 ( 50)  0.2790 ( 51) -0.1169 ( 54)  0.2232 ( 60)  0.2308 ( 62)
           0.2408 ( 63)  0.2284 ( 64) -0.1433 ( 65) -0.1253 ( 66) -0.1087 ( 67)
           0.2360 ( 68)  0.2461 ( 69)
 CRD 15=  -0.1755 ( 43) -0.2200 ( 44) -0.1899 ( 45) -0.1526 ( 46) -0.1971 ( 47)
          -0.1906 ( 48) -0.2278 ( 49) -0.1965 ( 50) -0.1525 ( 51) -0.2170 ( 52)
          -0.1869 ( 53) -0.1936 ( 54) -0.1876 ( 55) -0.1930 ( 56) -0.2243 ( 57)
          -0.2204 ( 58) -0.1903 ( 59) -0.1563 ( 60) -0.1910 ( 61) -0.1561 ( 62)
          -0.1791 ( 63) -0.1557 ( 64) -0.1963 ( 65) -0.2271 ( 66) -0.1958 ( 67)
          -0.1555 ( 68) -0.1785 ( 69)
 CRD 16=  -0.3936 (  7) -0.3348 (  8) -0.2946 (  9)  0.3238 ( 10)  0.3476 ( 11)
           0.2707 ( 12) -0.1094 ( 16)  0.1184 ( 17)  0.1726 ( 20) -0.1185 ( 21)
          -0.1677 ( 22)  0.1399 ( 23) -0.1764 ( 31) -0.1186 ( 32) -0.1376 ( 33)
           0.1314 ( 34)  0.1721 ( 35)  0.1014 ( 36)
 CRD 17=   0.1814 (  7)  0.1014 (  8)  0.1875 (  9)  0.1518 ( 10)  0.2452 ( 11)
           0.2494 ( 12) -0.4255 ( 13) -0.3400 ( 14) -0.3629 ( 15)  0.1697 ( 18)
           0.1749 ( 19) -0.1319 ( 21) -0.1077 ( 23)  0.1296 ( 24)  0.1183 ( 35)
          -0.2047 ( 37) -0.1410 ( 38) -0.1378 ( 39)
 CRD 18=  -0.1034 (  3) -0.2760 (  7) -0.3163 (  8) -0.3161 (  9) -0.2948 ( 10)
          -0.2585 ( 11) -0.2938 ( 12) -0.2614 ( 13) -0.2980 ( 14) -0.2974 ( 15)
           0.1087 ( 16)  0.1203 ( 17)  0.1006 ( 18)  0.1047 ( 20)  0.1048 ( 23)
           0.1106 ( 24) -0.1066 ( 31) -0.1127 ( 32) -0.1119 ( 33) -0.1043 ( 34)
          -0.1098 ( 35) -0.1009 ( 36) -0.1093 ( 37) -0.1062 ( 38) -0.1018 ( 39)
 CRD 19=   0.1745 (  3) -0.1984 (  4) -0.1428 (  6)  0.2277 (  8)  0.2643 (  9)
          -0.2694 ( 12) -0.2261 ( 15)  0.1023 ( 25) -0.1017 ( 26)  0.2069 ( 30)
          -0.2043 ( 44) -0.1950 ( 45)  0.1752 ( 47) -0.2026 ( 48)  0.1734 ( 49)
           0.1582 ( 50) -0.1745 ( 52) -0.1652 ( 53)  0.1396 ( 54) -0.1728 ( 55)
           0.1226 ( 56)  0.1378 ( 57) -0.1529 ( 58) -0.1436 ( 59) -0.1513 ( 61)
           0.1004 ( 64)  0.1434 ( 65)  0.1416 ( 66)  0.1264 ( 67)  0.1097 ( 68)
           0.1036 ( 69)
 CRD 20=   0.1585 ( 10) -0.5624 ( 11)  0.3581 ( 12)  0.2526 ( 13) -0.2734 ( 15)
           0.2749 ( 35) -0.2029 ( 36) -0.1240 ( 37)  0.1455 ( 39) -0.1340 ( 47)
           0.1665 ( 50) -0.1336 ( 54)  0.1669 ( 56) -0.1360 ( 65)  0.1646 ( 67)
 CRD 21=  -0.2291 ( 10)  0.3051 ( 11)  0.5767 ( 13) -0.2638 ( 14) -0.2626 ( 15)
           0.1264 ( 34) -0.1510 ( 35) -0.2855 ( 37)  0.1409 ( 38)  0.1519 ( 39)
           0.1670 ( 45) -0.1435 ( 48)  0.1641 ( 53) -0.1464 ( 55)  0.1795 ( 59)
          -0.1310 ( 61)
 CRD 22=  -0.4820 (  8)  0.4836 (  9)  0.1797 ( 10) -0.1727 ( 12) -0.2146 ( 14)
           0.2007 ( 15) -0.2562 ( 32)  0.2562 ( 33)  0.1158 ( 38) -0.1078 ( 39)
           0.1908 ( 43)  0.1848 ( 63)  0.1856 ( 69)
 CRD 23=   0.5665 (  7) -0.2847 (  8) -0.2301 (  9)  0.1441 ( 10) -0.1928 ( 12)
           0.1796 ( 14) -0.2341 ( 15) -0.2994 ( 31)  0.1328 ( 32)  0.1611 ( 33)
           0.1026 ( 36)  0.1257 ( 39)  0.1542 ( 46) -0.1609 ( 51) -0.1072 ( 52)
           0.1447 ( 60) -0.1704 ( 62)  0.1621 ( 64) -0.1530 ( 68)
 CRD 24=  -0.2384 (  8)  0.2623 (  9) -0.3865 ( 10)  0.1491 ( 11)  0.2305 ( 12)
          -0.1640 ( 13)  0.3925 ( 14) -0.2068 ( 15) -0.1497 ( 32)  0.1314 ( 33)
           0.2164 ( 34) -0.1246 ( 36) -0.2233 ( 38)  0.1184 ( 39) -0.1015 ( 44)
           0.1214 ( 47)  0.1335 ( 48) -0.1095 ( 49)  0.1304 ( 54)  0.1454 ( 55)
          -0.1005 ( 57)  0.1357 ( 61) -0.1021 ( 64)  0.1242 ( 65) -0.1067 ( 66)
 CRD 25=   0.2819 (  7) -0.1028 (  8) -0.1113 (  9) -0.3324 ( 10)  0.3225 ( 12)
          -0.2927 ( 14)  0.2868 ( 15) -0.1846 ( 31)  0.1976 ( 34) -0.2133 ( 36)
           0.1818 ( 38) -0.1924 ( 39) -0.1208 ( 45)  0.1022 ( 47) -0.1025 ( 48)
           0.1295 ( 50) -0.1370 ( 53)  0.1156 ( 54) -0.1187 ( 55)  0.1428 ( 56)
          -0.1309 ( 59) -0.1126 ( 61) -0.1103 ( 62)  0.1225 ( 64)  0.1145 ( 65)
           0.1418 ( 67)
 CRD 26=  -0.2577 (  5)  0.2186 (  6)  0.1748 (  8) -0.1085 (  9)  0.2512 ( 10)
           0.1043 ( 12) -0.1091 ( 13) -0.2506 ( 14) -0.1724 ( 15) -0.1852 ( 19)
          -0.1105 ( 20)  0.1968 ( 21)  0.1538 ( 23)  0.1423 ( 28) -0.1687 ( 29)
          -0.1408 ( 32)  0.1144 ( 33) -0.1573 ( 35) -0.1201 ( 36)  0.1863 ( 37)
           0.1043 ( 39) -0.1357 ( 40) -0.3640 ( 41) -0.1722 ( 42)  0.1306 ( 54)
           0.1075 ( 55) -0.1484 ( 60) -0.1551 ( 62) -0.1347 ( 64) -0.1414 ( 68)
 CRD 27=   0.6938 (  2) -0.1052 (  4) -0.2139 (  7) -0.1054 (  8) -0.1238 (  9)
          -0.1087 ( 11)  0.1354 ( 12) -0.1248 ( 13)  0.1126 ( 15) -0.1823 ( 17)
          -0.1141 ( 20) -0.1061 ( 26)  0.1544 ( 32)  0.1697 ( 33) -0.1283 ( 35)
           0.1011 ( 39)  0.1690 ( 59) -0.1661 ( 67)
 CRD 28=   0.3106 (  2) -0.1196 (  3)  0.1100 (  4)  0.1824 (  8)  0.2033 (  9)
          -0.1669 ( 11) -0.1927 ( 12) -0.1391 ( 13) -0.1524 ( 15) -0.1759 ( 16)
           0.1262 ( 17) -0.1265 ( 18)  0.1519 ( 20) -0.1597 ( 22)  0.1371 ( 23)
          -0.1298 ( 24) -0.2691 ( 25)  0.1260 ( 26) -0.2239 ( 31) -0.1041 ( 33)
           0.2033 ( 34)  0.1208 ( 35)  0.1040 ( 36)  0.1756 ( 38)  0.2229 ( 44)
           0.1973 ( 45) -0.1364 ( 47)  0.1601 ( 48) -0.1874 ( 49) -0.1659 ( 50)
 CRD 29=  -0.3658 (  2)  0.2780 (  3)  0.3440 (  4)  0.2013 (  5)  0.1863 (  6)
          -0.2102 (  7) -0.1333 (  8) -0.1324 (  9) -0.1694 ( 11) -0.1757 ( 13)
          -0.1049 ( 15) -0.1374 ( 16) -0.1887 ( 17) -0.1241 ( 18) -0.1218 ( 19)
          -0.1584 ( 20) -0.1150 ( 21) -0.1169 ( 22) -0.1586 ( 23) -0.1458 ( 24)
           0.1291 ( 31)  0.1903 ( 32)  0.1901 ( 33)  0.1452 ( 34)  0.1442 ( 36)
           0.1528 ( 38)  0.1516 ( 39)
 CRD 30=   0.4181 (  5) -0.3487 (  6)  0.1538 ( 10)  0.1416 ( 11)  0.1402 ( 12)
          -0.1690 ( 13) -0.1886 ( 14) -0.1579 ( 15)  0.1547 ( 16) -0.2003 ( 18)
          -0.1706 ( 19)  0.1370 ( 21)  0.1747 ( 22) -0.1840 ( 24) -0.1460 ( 34)
          -0.1686 ( 35) -0.1643 ( 36)  0.1974 ( 37)  0.1690 ( 38)  0.2011 ( 39)
           0.2132 ( 40)  0.2222 ( 41)  0.2148 ( 42)
 CRD 31=  -0.2678 (  2) -0.1826 (  3)  0.4785 (  4) -0.2385 (  5) -0.2495 (  6)
          -0.1316 (  7)  0.1399 (  8)  0.1410 (  9)  0.1666 ( 10) -0.1079 ( 11)
           0.1524 ( 12) -0.1117 ( 13)  0.1636 ( 14)  0.1487 ( 15) -0.2024 ( 31)
          -0.2275 ( 35) -0.2227 ( 37)  0.1340 ( 54) -0.1353 ( 55)  0.1252 ( 59)
          -0.1333 ( 62)  0.1347 ( 64) -0.1251 ( 67)
 CRD 32=   0.4686 (  3) -0.1637 (  5) -0.2887 (  6) -0.1672 (  7)  0.1918 ( 10)
           0.1229 ( 11) -0.1111 ( 12)  0.1976 ( 14) -0.1599 ( 15) -0.1256 ( 20)
          -0.1297 ( 23) -0.1799 ( 25)  0.1158 ( 26)  0.1622 ( 32)  0.1183 ( 33)
          -0.2134 ( 36) -0.1967 ( 39)  0.2565 ( 44) -0.1150 ( 47)  0.1177 ( 48)
          -0.2176 ( 49)
 CRD 33=  -0.1659 (  5)  0.1429 (  6)  0.2707 ( 10) -0.2931 ( 12) -0.2180 ( 14)
           0.2403 ( 15)  0.1094 ( 19) -0.1198 ( 21)  0.2447 ( 34) -0.1790 ( 36)
          -0.2134 ( 38)  0.1340 ( 39)  0.1941 ( 40)  0.1891 ( 41)  0.1942 ( 42)
           0.1208 ( 43) -0.1846 ( 44) -0.2416 ( 49) -0.1646 ( 52)  0.1151 ( 54)
           0.1050 ( 55) -0.2039 ( 57) -0.1493 ( 58)  0.1203 ( 61)  0.1277 ( 65)
          -0.1912 ( 66)
 CRD 34=  -0.3608 (  8)  0.3626 (  9) -0.1467 ( 20)  0.1461 ( 23)  0.2769 ( 32)
          -0.2759 ( 33) -0.1474 ( 40) -0.2286 ( 41) -0.1611 ( 42) -0.2851 ( 43)
           0.1337 ( 46)  0.1309 ( 51)  0.1333 ( 60)  0.1305 ( 62) -0.2855 ( 63)
           0.1408 ( 64)  0.1381 ( 68) -0.2780 ( 69)
 CRD 35=  -0.3250 (  7)  0.1666 (  8)  0.1275 (  9) -0.1972 ( 10)  0.1874 ( 11)
           0.1185 ( 13) -0.1872 ( 14)  0.1179 ( 17)  0.1053 ( 30) -0.2348 ( 31)
           0.1194 ( 32)  0.1491 ( 33) -0.1656 ( 34)  0.1317 ( 35) -0.1506 ( 38)
           0.1820 ( 46) -0.1984 ( 47)  0.1687 ( 48) -0.2079 ( 51) -0.2232 ( 54)
           0.1865 ( 55)  0.1570 ( 60)  0.1574 ( 61) -0.2328 ( 62)  0.2075 ( 64)
          -0.1807 ( 65) -0.1824 ( 68)
 CRD 36=  -0.2773 ( 11)  0.1727 ( 12)  0.3217 ( 13) -0.1899 ( 15) -0.1157 ( 24)
          -0.1969 ( 35)  0.1565 ( 36)  0.2306 ( 37) -0.1709 ( 39)  0.1196 ( 40)
           0.1158 ( 42) -0.2385 ( 45)  0.1208 ( 47)  0.1580 ( 48) -0.2227 ( 50)
          -0.2263 ( 53)  0.1214 ( 54)  0.1702 ( 55) -0.2220 ( 56) -0.2628 ( 59)
           0.1337 ( 61)  0.1010 ( 64) -0.2547 ( 67)
 CRD 37=   0.2534 (  3) -0.1596 (  6)  0.1126 (  7) -0.1157 (  9)  0.2074 ( 12)
          -0.1519 ( 14)  0.2149 ( 15) -0.1433 ( 18)  0.1402 ( 19)  0.1182 ( 21)
          -0.1214 ( 22) -0.1856 ( 25)  0.1146 ( 26)  0.1131 ( 30)  0.1320 ( 31)
           0.1329 ( 36) -0.1202 ( 38)  0.1464 ( 39)  0.1095 ( 40) -0.1221 ( 42)
           0.2434 ( 45) -0.1187 ( 46) -0.1193 ( 47)  0.1770 ( 48) -0.2358 ( 50)
          -0.2470 ( 52)  0.1962 ( 57) -0.2698 ( 58) -0.1130 ( 60)  0.2346 ( 66)
           0.1187 ( 68)
 CRD 38=  -0.2611 (  5)  0.2187 (  6) -0.1453 ( 10)  0.1234 ( 14) -0.1005 ( 20)
           0.1017 ( 23) -0.1338 ( 26)  0.1569 ( 27)  0.1189 ( 28) -0.1399 ( 29)
           0.4178 ( 40)  0.1766 ( 41)  0.3783 ( 42)  0.1963 ( 46) -0.1961 ( 47)
          -0.1446 ( 48) -0.1154 ( 50)  0.2115 ( 51)  0.1281 ( 52)  0.1701 ( 57)
          -0.1762 ( 63)  0.1055 ( 66) -0.1629 ( 69)
 CRD 39=  -0.2521 (  4) -0.1556 (  7) -0.1640 ( 11) -0.1634 ( 13)  0.1241 ( 16)
           0.1221 ( 17)  0.1245 ( 24)  0.1029 ( 25)  0.1067 ( 26)  0.1078 ( 27)
          -0.1068 ( 31) -0.1084 ( 35) -0.1092 ( 37)  0.1198 ( 45)  0.1150 ( 46)
           0.1253 ( 47) -0.1257 ( 48) -0.1226 ( 50) -0.1124 ( 51)  0.1466 ( 52)
           0.2583 ( 53) -0.2596 ( 56) -0.1443 ( 57) -0.1365 ( 58)  0.2550 ( 60)
          -0.2704 ( 61)  0.1396 ( 63)  0.2705 ( 65)  0.1379 ( 66) -0.2544 ( 68)
          -0.1424 ( 69)

 THE DETERMINANT OF THE G MATRIX IS 10**(   -19)


                     --------------------
                     INTERNAL COORDINATES
                     --------------------

                 - - ATOMS - -         COORDINATE      COORDINATE
 NO.   TYPE    I  J  K  L  M  N        (BOHR,RAD)       (ANG,DEG)
 ----------------------------------------------------------------
   1 BEND      1  3  2                  2.5830873     148.0000000
   2 STRETCH   1  3                     3.9762825       2.1041582
   3 STRETCH   2  4                     3.3419250       1.7684707
   4 STRETCH   2  3                     3.2122003       1.6998233
   5 STRETCH   2  6                     3.3533479       1.7745154
   6 STRETCH   2  5                     3.3566024       1.7762376
   7 STRETCH   4  8                     2.0683370       1.0945169
   8 STRETCH   4  7                     2.0596147       1.0899013
   9 STRETCH   4  9                     2.0600192       1.0901153
  10 STRETCH   5 12                     2.0598312       1.0900158
  11 STRETCH   5 11                     2.0711329       1.0959964
  12 STRETCH   5 10                     2.0593068       1.0897383
  13 STRETCH   6 15                     2.0706478       1.0957397
  14 STRETCH   6 14                     2.0600001       1.0901052
  15 STRETCH   6 13                     2.0586775       1.0894053
  16 BEND      2  5 11                  1.8566297     106.3770460
  17 BEND      2  4  8                  1.8791631     107.6681147
  18 BEND      2  6 13                  1.9642098     112.5409312
  19 BEND      2  6 14                  1.9331993     110.7641606
  20 BEND      2  4  9                  1.9265700     110.3843289
  21 BEND      2  5 12                  1.9394881     111.1244802
  22 BEND      2  5 10                  1.9656448     112.6231488
  23 BEND      2  4  7                  1.9312959     110.6551060
  24 BEND      2  6 15                  1.8595361     106.5435716
  25 BEND      3  2  4                  1.8398827     105.4175157
  26 BEND      3  2  5                  1.8719913     107.2571984
  27 BEND      3  2  6                  1.8678304     107.0187974
  28 BEND      4  2  6                  1.9586901     112.2246733
  29 BEND      4  2  5                  1.9571492     112.1363891
  30 BEND      5  2  6                  1.9596188     112.2778847
  31 BEND      7  4  9                  1.9280979     110.4718709
  32 BEND      7  4  8                  1.8988161     108.7941484
  33 BEND      8  4  9                  1.8987269     108.7890377
  34 BEND     10  5 11                  1.8692729     107.1014455
  35 BEND     10  5 12                  1.9490151     111.6703366
  36 BEND     11  5 12                  1.8777389     107.5865117
  37 BEND     13  6 14                  1.9437285     111.3674386
  38 BEND     13  6 15                  1.8756912     107.4691868
  39 BEND     14  6 15                  1.8826947     107.8704579
  40 TORSION   1  3  2  5               0.9043412      51.8149314
  41 TORSION   1  3  2  4               2.9929411     171.4828924
  42 TORSION   1  3  2  6              -1.2019131     -68.8645451
  43 TORSION   3  2  4  8               3.1367500     179.7225348
  44 TORSION   3  2  6 15              -3.0812004    -176.5397799
  45 TORSION   3  2  6 14              -1.0380576     -59.4763188
  46 TORSION   3  2  4  7              -1.0733635     -61.4991964
  47 TORSION   3  2  5 10              -1.1530719     -66.0661513
  48 TORSION   3  2  6 13               1.1505499      65.9216546
  49 TORSION   3  2  5 11               3.0874842     176.8998112
  50 TORSION   3  2  5 12               1.0486300      60.0820760
  51 TORSION   3  2  4  9               1.0664705      61.1042572
  52 TORSION   4  2  6 15              -1.0709944     -61.3634568
  53 TORSION   4  2  6 14               0.9721485      55.7000042
  54 TORSION   4  2  5 10               3.1182489     178.6625038
  55 TORSION   4  2  6 13              -3.1224293    -178.9020223
  56 TORSION   4  2  5 12              -0.9632345     -55.1892690
  57 TORSION   4  2  5 11               1.0756196      61.6284662
  58 TORSION   5  2  6 15               1.1524361      66.0297244
  59 TORSION   5  2  6 14              -3.0876064    -176.9068146
  60 TORSION   5  2  4  7               0.9579470      54.8863175
  61 TORSION   5  2  6 13              -0.8989989     -51.5088411
  62 TORSION   5  2  4  9               3.0977809     177.4897710
  63 TORSION   5  2  4  8              -1.1151249     -63.8919513
  64 TORSION   6  2  4  7              -3.1004907    -177.6450337
  65 TORSION   6  2  5 10               0.8939973      51.2222739
  66 TORSION   6  2  5 11              -1.1486320     -65.8117636
  67 TORSION   6  2  5 12               3.0956992     177.3705012
  68 TORSION   6  2  4  9              -0.9606568     -55.0415802
  69 TORSION   6  2  4  8               1.1096227      63.5766974

     ------------------------------------------
     THE POINT GROUP IS C1 , NAXIS= 0, ORDER= 1
     ------------------------------------------

 -- VARIATIONAL SPACE WILL BE RESTRICTED TO PURE SPHERICAL HARMONICS ONLY --
 AFTER EXCLUDING CONTAMINANT COMBINATIONS FROM THE CARTESIAN GAUSSIAN BASIS
 SET, THE NUMBER OF SPHERICAL HARMONICS KEPT IN THE VARIATION SPACE IS  316

     DIMENSIONS OF THE SYMMETRY SUBSPACES ARE
 A   =  316

 ..... DONE SETTING UP THE RUN .....
 CPU     0: STEP CPU TIME=     0.09 TOTAL CPU TIME=        0.1 (    0.0 MIN)
 TOTAL WALL CLOCK TIME=        0.2 SECONDS, CPU UTILIZATION IS  56.25%


          -----------------------------
          STATIONARY POINT LOCATION RUN
          -----------------------------


           ** GEOMETRY CONSTRAINTS ARE BEING APPLIED. **

          TRANSFORMING DISPLACEMENT FROM INTERNALS TO CARTESIANS
          THE ROOT MEAN SQUARE ERROR IN ITERATION   1 IS   0.00000000
 WARNING! THE RADIUS IN CARTESIANS IS    0.00000
 OBTAINING INITIAL HESSIAN, HESS=GUESS   
 DIAGONAL GUESS HESSIAN IN INTERNAL COORDS IS
     1  0.3175     2  0.5807     3  0.4387     4  0.4048     5  0.4335
     6  0.4321     7  0.3433     8  0.3464     9  0.3463    10  0.3464
    11  0.3424    12  0.3465    13  0.3425    14  0.3463    15  0.3468
    16  0.2407    17  0.2413    18  0.2412    19  0.2412    20  0.2416
    21  0.2411    22  0.2411    23  0.2416    24  0.2408    25  0.2838
    26  0.2831    27  0.2833    28  0.2919    29  0.2918    30  0.2913
    31  0.2034    32  0.2032    33  0.2032    34  0.2031    35  0.2034
    36  0.2031    37  0.2034    38  0.2031    39  0.2031    40  0.2500
    41  0.2500    42  0.2500    43  0.2500    44  0.2500    45  0.2500
    46  0.2500    47  0.2500    48  0.2500    49  0.2500    50  0.2500
    51  0.2500    52  0.2500    53  0.2500    54  0.2500    55  0.2500
    56  0.2500    57  0.2500    58  0.2500    59  0.2500    60  0.2500
    61  0.2500    62  0.2500    63  0.2500    64  0.2500    65  0.2500
    66  0.2500    67  0.2500    68  0.2500    69  0.2500
 TRANSFORMING HESSIAN TO SYMMETRY COORDINATES

          PARAMETERS CONTROLLING GEOMETRY SEARCH ARE
          METHOD =QA                  UPHESS =BFGS    
          NNEG   =         0          NFRZ   =         0
          NSTEP  =        50          IFOLOW =         1
          HESS   =GUESS               RESTAR =         F
          IHREP  =         0          HSSEND =         F
          NPRT   =         0          NPUN   =         0
          OPTTOL = 1.000E-04          RMIN   = 1.500E-03
          RMAX   = 1.000E-01          RLIM   = 7.000E-02
          DXMAX  = 3.000E-01          PURIFY =         F
          MOVIE  =         F          TRUPD  =         T
          TRMAX  = 5.000E-01          TRMIN  = 5.000E-02
          ITBMAT =         5          STPT   =         F
          STSTEP = 1.000E-02          PROJCT=          T

 BEGINNING GEOMETRY SEARCH POINT NSERCH=   0 ...

 COORDINATES OF ALL ATOMS ARE (ANGS)
   ATOM   CHARGE       X              Y              Z
 ------------------------------------------------------------
 LA         57.0   0.3135193724   0.8876615767  -4.0307645172
 P          15.0   0.4063735732   0.0898184673  -0.4617130548
 O           8.0  -0.1151882716   0.6290225777  -1.9870430417
 C           6.0  -0.8312656945   0.6346133565   0.6779957420
 C           6.0   1.9838365026   0.8434047663  -0.1474861744
 C           6.0   0.5106422487  -1.6797138020  -0.5441058551
 H           1.0  -0.9020669978   1.7222124866   0.6777765394
 H           1.0  -0.5330565374   0.3008618920   1.6768192579
 H           1.0  -1.7957122012   0.1897075587   0.4325307169
 H           1.0   2.7581284239   0.4956056401  -0.8308874788
 H           1.0   2.2799503966   0.5315826850   0.8606267467
 H           1.0   1.9065725072   1.9306783401  -0.1465381466
 H           1.0   1.2846497074  -2.0209332918  -1.2306082685
 H           1.0  -0.4586640901  -2.1128703027  -0.7913911365
 H           1.0   0.7862517138  -2.0230776949   0.4592814781


                     --------------------
                     INTERNAL COORDINATES
                     --------------------

                 - - ATOMS - -         COORDINATE      COORDINATE
 NO.   TYPE    I  J  K  L  M  N        (BOHR,RAD)       (ANG,DEG)
 ----------------------------------------------------------------
   1 BEND      1  3  2                  2.5830873     148.0000000
   2 STRETCH   1  3                     3.9762825       2.1041582
   3 STRETCH   2  4                     3.3419250       1.7684707
   4 STRETCH   2  3                     3.2122003       1.6998233
   5 STRETCH   2  6                     3.3533479       1.7745154
   6 STRETCH   2  5                     3.3566024       1.7762376
   7 STRETCH   4  8                     2.0683370       1.0945169
   8 STRETCH   4  7                     2.0596147       1.0899013
   9 STRETCH   4  9                     2.0600192       1.0901153
  10 STRETCH   5 12                     2.0598312       1.0900158
  11 STRETCH   5 11                     2.0711329       1.0959964
  12 STRETCH   5 10                     2.0593068       1.0897383
  13 STRETCH   6 15                     2.0706478       1.0957397
  14 STRETCH   6 14                     2.0600001       1.0901052
  15 STRETCH   6 13                     2.0586775       1.0894053
  16 BEND      2  5 11                  1.8566297     106.3770460
  17 BEND      2  4  8                  1.8791631     107.6681147
  18 BEND      2  6 13                  1.9642098     112.5409312
  19 BEND      2  6 14                  1.9331993     110.7641606
  20 BEND      2  4  9                  1.9265700     110.3843289
  21 BEND      2  5 12                  1.9394881     111.1244802
  22 BEND      2  5 10                  1.9656448     112.6231488
  23 BEND      2  4  7                  1.9312959     110.6551060
  24 BEND      2  6 15                  1.8595361     106.5435716
  25 BEND      3  2  4                  1.8398827     105.4175157
  26 BEND      3  2  5                  1.8719913     107.2571984
  27 BEND      3  2  6                  1.8678304     107.0187974
  28 BEND      4  2  6                  1.9586901     112.2246733
  29 BEND      4  2  5                  1.9571492     112.1363891
  30 BEND      5  2  6                  1.9596188     112.2778847
  31 BEND      7  4  9                  1.9280979     110.4718709
  32 BEND      7  4  8                  1.8988161     108.7941484
  33 BEND      8  4  9                  1.8987269     108.7890377
  34 BEND     10  5 11                  1.8692729     107.1014455
  35 BEND     10  5 12                  1.9490151     111.6703366
  36 BEND     11  5 12                  1.8777389     107.5865117
  37 BEND     13  6 14                  1.9437285     111.3674386
  38 BEND     13  6 15                  1.8756912     107.4691868
  39 BEND     14  6 15                  1.8826947     107.8704579
  40 TORSION   1  3  2  5               0.9043412      51.8149314
  41 TORSION   1  3  2  4               2.9929411     171.4828924
  42 TORSION   1  3  2  6              -1.2019131     -68.8645451
  43 TORSION   3  2  4  8               3.1367500     179.7225348
  44 TORSION   3  2  6 15              -3.0812004    -176.5397799
  45 TORSION   3  2  6 14              -1.0380576     -59.4763188
  46 TORSION   3  2  4  7              -1.0733635     -61.4991964
  47 TORSION   3  2  5 10              -1.1530719     -66.0661513
  48 TORSION   3  2  6 13               1.1505499      65.9216546
  49 TORSION   3  2  5 11               3.0874842     176.8998112
  50 TORSION   3  2  5 12               1.0486300      60.0820760
  51 TORSION   3  2  4  9               1.0664705      61.1042572
  52 TORSION   4  2  6 15              -1.0709944     -61.3634568
  53 TORSION   4  2  6 14               0.9721485      55.7000042
  54 TORSION   4  2  5 10               3.1182489     178.6625038
  55 TORSION   4  2  6 13              -3.1224293    -178.9020223
  56 TORSION   4  2  5 12              -0.9632345     -55.1892690
  57 TORSION   4  2  5 11               1.0756196      61.6284662
  58 TORSION   5  2  6 15               1.1524361      66.0297244
  59 TORSION   5  2  6 14              -3.0876064    -176.9068146
  60 TORSION   5  2  4  7               0.9579470      54.8863175
  61 TORSION   5  2  6 13              -0.8989989     -51.5088411
  62 TORSION   5  2  4  9               3.0977809     177.4897710
  63 TORSION   5  2  4  8              -1.1151249     -63.8919513
  64 TORSION   6  2  4  7              -3.1004907    -177.6450337
  65 TORSION   6  2  5 10               0.8939973      51.2222739
  66 TORSION   6  2  5 11              -1.1486320     -65.8117636
  67 TORSION   6  2  5 12               3.0956992     177.3705012
  68 TORSION   6  2  4  9              -0.9606568     -55.0415802
  69 TORSION   6  2  4  8               1.1096227      63.5766974

          ********************
          1 ELECTRON INTEGRALS
          ********************
 TIME TO DO ORDINARY INTEGRALS=      0.01
 TIME TO DO      ECP INTEGRALS=      0.07
 ...... END OF ONE-ELECTRON INTEGRALS ......
 CPU     0: STEP CPU TIME=     0.08 TOTAL CPU TIME=        0.2 (    0.0 MIN)
 TOTAL WALL CLOCK TIME=        0.3 SECONDS, CPU UTILIZATION IS  58.62%

          -------------
          GUESS OPTIONS
          -------------
          GUESS =HUCKEL            NORB  =       0          NORDER=       0
          MIX   =       F          PRTMO =       F          PUNMO =       F
          TOLZ  = 1.0E-08          TOLE  = 1.0E-05
          SYMDEN=       F          PURIFY=       F

 INITIAL GUESS ORBITALS GENERATED BY HUCKEL   ROUTINE.
 HUCKEL GUESS REQUIRES    916545 WORDS.

 STATISTICS FOR GENERATION OF SYMMETRY ORBITAL -Q- MATRIX
 NUMBER OF CARTESIAN ATOMIC ORBITALS=        354
 NUMBER OF SPHERICAL CONTAMINANTS DROPPED=    38
 NUMBER OF LINEARLY DEPENDENT MOS DROPPED=     0
 TOTAL NUMBER OF MOS IN VARIATION SPACE=     316

 SYMMETRIES FOR INITIAL GUESS ORBITALS FOLLOW.   BOTH SET(S).
    29 ORBITALS ARE OCCUPIED (   13 CORE ORBITALS).
    14=A       15=A       16=A       17=A       18=A       19=A       20=A   
    21=A       22=A       23=A       24=A       25=A       26=A       27=A   
    28=A       29=A       30=A       31=A       32=A       33=A       34=A   
    35=A       36=A       37=A       38=A       39=A   
 ...... END OF INITIAL ORBITAL SELECTION ......
 CPU     0: STEP CPU TIME=     0.21 TOTAL CPU TIME=        0.4 (    0.0 MIN)
 TOTAL WALL CLOCK TIME=        0.8 SECONDS, CPU UTILIZATION IS  49.35%

                    ----------------------
                    AO INTEGRAL TECHNOLOGY
                    ----------------------
     S,P,L SHELL ROTATED AXIS INTEGRALS, REPROGRAMMED BY
        KAZUYA ISHIMURA (IMS) AND JOSE SIERRA (SYNSTAR).
     S,P,D,L SHELL ROTATED AXIS INTEGRALS PROGRAMMED BY
        KAZUYA ISHIMURA (INSTITUTE FOR MOLECULAR SCIENCE).
     S,P,D,F,G SHELL TO TOTAL QUARTET ANGULAR MOMENTUM SUM 5,
        ERIC PROGRAM BY GRAHAM FLETCHER (ELORET AND NASA ADVANCED
        SUPERCOMPUTING DIVISION, AMES RESEARCH CENTER).
     S,P,D,F,G,L SHELL GENERAL RYS QUADRATURE PROGRAMMED BY
        MICHEL DUPUIS (PACIFIC NORTHWEST NATIONAL LABORATORY).

          --------------------
          2 ELECTRON INTEGRALS
          --------------------

 DIRECT SCF METHOD SKIPS INTEGRAL STORAGE ON DISK.
 DIRECT TRANSFORMATION SKIPS AO INTEGRAL STORAGE ON DISK.
  ...... END OF TWO-ELECTRON INTEGRALS .....
 CPU     0: STEP CPU TIME=     0.01 TOTAL CPU TIME=        0.4 (    0.0 MIN)
 TOTAL WALL CLOCK TIME=        0.8 SECONDS, CPU UTILIZATION IS  50.00%

          --------------------------
                 RHF SCF CALCULATION
          --------------------------

     NUCLEAR ENERGY =       336.8830517375
     MAXIT =  200     NPUNCH=    2
     EXTRAP=T  DAMP=F  SHIFT=F  RSTRCT=F  DIIS=F  DEM=F  SOSCF=T
     DENSITY MATRIX CONV=  2.00E-06
     SOSCF WILL OPTIMIZE    8323 ORBITAL ROTATIONS, SOGTOL=   0.250
     MEMORY REQUIRED FOR RHF ITERS=    982670 WORDS.

 DIRECT SCF CALCULATION, SCHWRZ=T   FDIFF=F,  DIRTHR=  0.00E+00 NITDIR=10
 SCHWARZ INEQUALITY OVERHEAD:     62228 INTEGRALS, T=        0.00

                                                                                   NONZERO     BLOCKS
 ITER EX DEM     TOTAL ENERGY        E CHANGE  DENSITY CHANGE     ORB. GRAD      INTEGRALS    SKIPPED
   1  0  0     -563.3540927337  -563.3540927337   0.373269341   0.000000000     1480063308    4111285
          ---------------START SECOND ORDER SCF---------------
   2  1  0     -564.5061130857    -1.1520203521   0.146142615   0.084146982     1467032029    4408031
   3  2  0     -564.6238260833    -0.1177129976   0.061380441   0.055677887     1465871779    4418731
   4  3  0     -564.7093881115    -0.0855620282   0.020073840   0.009312305     1466383319    4408206
   5  4  0     -564.7118363983    -0.0024482868   0.006181330   0.005572423     1467129913    4399833
   6  5  0     -564.7125125588    -0.0006761605   0.002748601   0.001688955     1467126695    4399121
   7  6  0     -564.7125804675    -0.0000679087   0.000988142   0.000619762     1467147131    4398857
   8  7  0     -564.7125908640    -0.0000103965   0.000486077   0.000205834     1467162627    4398858
   9  8  0     -564.7125928464    -0.0000019824   0.000193166   0.000090548     1467163138    4398892
  10  9  0     -564.7125932080    -0.0000003616   0.000088168   0.000035248     1467161177    4398953
  11 10  0     -564.7125932694    -0.0000000615   0.000038167   0.000016959     1467159937    4398950
  12 11  0     -564.7125932782    -0.0000000088   0.000014963   0.000007640     1467159684    4398950
  13 12  0     -564.7125932798    -0.0000000016   0.000005847   0.000002915     1467159589    4398949
  14 13  0     -564.7125932801    -0.0000000003   0.000003397   0.000000884     1467159706    4398947
  15 14  0     -564.7125932802    -0.0000000001   0.000001278   0.000000310     1467159665    4398950

          -----------------
          DENSITY CONVERGED
          -----------------
     TIME TO FORM FOCK OPERATORS=      98.5 SECONDS (       6.6 SEC/ITER)
     FOCK TIME ON FIRST ITERATION=       6.7, LAST ITERATION=       6.5
     TIME TO SOLVE SCF EQUATIONS=       0.4 SECONDS (       0.0 SEC/ITER)

 FINAL RHF ENERGY IS     -564.7125932802 AFTER  15 ITERATIONS

          ------------
          EIGENVECTORS
          ------------

                      1          2          3          4          5
                  -80.4786   -21.0491   -11.6501   -11.6457   -11.6279
                     A          A          A          A          A   
    1  LA 1  S    0.000001  -0.000020   0.000001  -0.000001   0.000008
    2  LA 1  X   -0.000003   0.000005  -0.000003   0.000001   0.000005
    3  LA 1  Y    0.000001  -0.000001  -0.000002   0.000011  -0.000010
    4  LA 1  Z    0.000000  -0.000004  -0.000007  -0.000010   0.000024
    5  LA 1 XX    0.000002   0.000013  -0.000002  -0.000017   0.000005
    6  LA 1 YY    0.000002   0.000004  -0.000019   0.000011   0.000004
    7  LA 1 ZZ   -0.000004  -0.000018   0.000021   0.000006  -0.000010
    8  LA 1 XY   -0.000000   0.000006   0.000007   0.000001  -0.000005
    9  LA 1 XZ    0.000002  -0.000023   0.000023  -0.000006   0.000007
   10  LA 1 YZ    0.000001   0.000018   0.000011  -0.000022  -0.000002
   11  LA 1 XX   -0.000003   0.000081   0.000002   0.000038   0.000029
   12  LA 1 YY   -0.000000   0.000073   0.000048  -0.000025   0.000028
   13  LA 1 ZZ    0.000004  -0.000154  -0.000050  -0.000013  -0.000057
   14  LA 1 XY   -0.000001  -0.000029  -0.000019  -0.000002   0.000009
   15  LA 1 XZ    0.000006   0.000075  -0.000046   0.000026  -0.000002
   16  LA 1 YZ   -0.000004   0.000017  -0.000031   0.000041   0.000033
   17  LA 1  S    0.000000  -0.000163  -0.000092  -0.000084  -0.000144
   18  LA 1  X    0.000002   0.000037  -0.000008   0.000024   0.000018
   19  LA 1  Y   -0.000002   0.000006  -0.000027   0.000023  -0.000001
   20  LA 1  Z    0.000006  -0.000119  -0.000023  -0.000011  -0.000031
   21  LA 1  S   -0.000001   0.000049   0.000214   0.000200   0.000201
   22  LA 1  X   -0.000001  -0.000038   0.000068   0.000001  -0.000018
   23  LA 1  Y    0.000001   0.000009   0.000003  -0.000101  -0.000022
   24  LA 1  Z   -0.000004   0.000041   0.000178   0.000148   0.000156
   25  LA 1  S   -0.000011  -0.000073   0.000005   0.000003  -0.000048
   26  LA 1  X    0.000007   0.000017   0.000008  -0.000003   0.000001
   27  LA 1  Y   -0.000001   0.000031   0.000005  -0.000022   0.000024
   28  LA 1  Z   -0.000010  -0.000178   0.000019   0.000019  -0.000093
   29  LA 1 XX    0.000001  -0.000017  -0.000025  -0.000065  -0.000046
   30  LA 1 YY   -0.000000  -0.000016  -0.000074   0.000008  -0.000049
   31  LA 1 ZZ   -0.000001   0.000033   0.000099   0.000058   0.000095
   32  LA 1 XY    0.000000   0.000013   0.000002  -0.000014  -0.000012
   33  LA 1 XZ   -0.000002  -0.000047   0.000084   0.000005  -0.000004
   34  LA 1 YZ    0.000001   0.000012   0.000000  -0.000091  -0.000037
   35  P  2  S    1.000138   0.000088   0.000075   0.000078   0.000087
   36  P  2  S    0.000176   0.000548   0.000541   0.000559   0.000619
   37  P  2  S    0.000190   0.000729   0.000847   0.000871   0.000954
   38  P  2  S   -0.000944  -0.000273  -0.000260  -0.000273  -0.000316
   39  P  2  S   -0.000367  -0.002353  -0.000065   0.000040   0.000314
   40  P  2  X   -0.000012  -0.000056   0.000426   0.000028  -0.000381
   41  P  2  Y    0.000022   0.000059   0.000203  -0.000495   0.000171
   42  P  2  Z   -0.000075  -0.000164   0.000101  -0.000011   0.000328
   43  P  2  X   -0.000009  -0.000151   0.001121   0.000070  -0.000994
   44  P  2  Y    0.000018   0.000159   0.000543  -0.001297   0.000448
   45  P  2  Z   -0.000065  -0.000444   0.000242  -0.000051   0.000850
   46  P  2  X    0.000006   0.000047  -0.000050  -0.000006   0.000047
   47  P  2  Y   -0.000011  -0.000049  -0.000017   0.000061  -0.000020
   48  P  2  Z    0.000038   0.000139  -0.000031  -0.000016  -0.000045
   49  P  2  X   -0.000036   0.000242  -0.000058   0.000003   0.000051
   50  P  2  Y    0.000030  -0.000345  -0.000086  -0.000019  -0.000078
   51  P  2  Z   -0.000059   0.001134   0.000320   0.000345   0.000213
   52  P  2 XX   -0.000003  -0.000078   0.000164  -0.000147   0.000056
   53  P  2 YY   -0.000002  -0.000064  -0.000066   0.000248  -0.000112
   54  P  2 ZZ    0.000005   0.000142  -0.000097  -0.000101   0.000056
   55  P  2 XY    0.000000  -0.000018   0.000172  -0.000030  -0.000114
   56  P  2 XZ    0.000003   0.000085   0.000076   0.000026  -0.000201
   57  P  2 YZ   -0.000003  -0.000093  -0.000001   0.000022   0.000078
   58  P  2 XX   -0.000013  -0.000037   0.000409  -0.000137   0.000108
   59  P  2 YY   -0.000015  -0.000117  -0.000096   0.000558  -0.000140
   60  P  2 ZZ    0.000029   0.000154  -0.000312  -0.000421   0.000032
   61  P  2 XY   -0.000010  -0.000134   0.000264  -0.000050  -0.000100
   62  P  2 XZ    0.000025   0.000149   0.000131  -0.000169  -0.000504
   63  P  2 YZ   -0.000023  -0.000132   0.000287  -0.000020   0.000261
   64  P  2 XXX   0.000005   0.000105   0.000045   0.000014   0.000019
   65  P  2 YYY  -0.000007  -0.000028  -0.000036  -0.000077  -0.000055
   66  P  2 ZZZ  -0.000006  -0.000148  -0.000020   0.000009  -0.000064
   67  P  2 XXY   0.000001  -0.000156   0.000054   0.000030   0.000033
   68  P  2 XXZ   0.000005   0.000064   0.000002   0.000027   0.000073
   69  P  2 YYX   0.000001   0.000016   0.000018   0.000004   0.000016
   70  P  2 YYZ   0.000004   0.000134   0.000025  -0.000038   0.000013
   71  P  2 ZZX  -0.000009  -0.000157  -0.000078  -0.000022  -0.000042
   72  P  2 ZZY   0.000009   0.000194  -0.000005   0.000073   0.000041
   73  P  2 XYZ   0.000005   0.000133   0.000015   0.000020  -0.000025
   74  P  2 XX    0.000001   0.000022  -0.000001   0.000004  -0.000000
   75  P  2 YY    0.000001   0.000019   0.000002  -0.000003   0.000004
   76  P  2 ZZ   -0.000001  -0.000041  -0.000000  -0.000001  -0.000004
   77  P  2 XY    0.000000   0.000007  -0.000003   0.000001   0.000003
   78  P  2 XZ   -0.000001  -0.000026  -0.000002  -0.000003   0.000003
   79  P  2 YZ    0.000001   0.000027   0.000003   0.000000  -0.000000
   80  O  3  S   -0.000002   0.975635   0.000024   0.000025   0.000029
   81  O  3  S   -0.000004  -0.001143   0.000033   0.000036   0.000043
   82  O  3  S    0.000005   0.043352  -0.000012  -0.000011  -0.000006
   83  O  3  S   -0.000063   0.004606   0.000207   0.000197   0.000086
   84  O  3  X    0.000000   0.000544  -0.000008  -0.000004   0.000004
   85  O  3  Y   -0.000000  -0.000321   0.000001   0.000008   0.000000
   86  O  3  Z    0.000000   0.000455  -0.000009  -0.000007  -0.000012
   87  O  3  X   -0.000007  -0.000360   0.000020   0.000011  -0.000014
   88  O  3  Y    0.000006   0.000262  -0.000005  -0.000021   0.000000
   89  O  3  Z   -0.000016  -0.000538   0.000022   0.000020   0.000042
   90  O  3  X   -0.000012   0.000395  -0.000046  -0.000007   0.000113
   91  O  3  Y    0.000017  -0.000235  -0.000031   0.000057  -0.000029
   92  O  3  Z   -0.000057   0.000354   0.000051   0.000056  -0.000192
   93  O  3 XX    0.000000  -0.000016   0.000014  -0.000013  -0.000004
   94  O  3 YY    0.000000  -0.000015  -0.000009   0.000020  -0.000014
[...]
            143  C  4 XXY     0.00122     0.07715
            144  C  4 XXZ     0.00070     0.07412
            145  C  4 YYX     0.00095     0.07284
            146  C  4 YYZ     0.00134     0.06556
            147  C  4 ZZX     0.00000     0.07099
            148  C  4 ZZY     0.00000     0.06676
            149  C  4 XYZ     0.00000     0.00286
            150  C  5  S      1.95557     1.55587
            151  C  5  S      0.82688     0.43094
            152  C  5  S      0.16119     0.27824
            153  C  5  S      0.35462     0.14808
            154  C  5  X      0.27087     0.21162
            155  C  5  Y      0.29083     0.22356
            156  C  5  Z      0.29808     0.22836
            157  C  5  X      0.51255     0.26668
            158  C  5  Y      0.53232     0.27850
            159  C  5  Z      0.54672     0.28095
            160  C  5  X      0.13307     0.18145
            161  C  5  Y      0.17728     0.20160
            162  C  5  Z      0.29142     0.21965
            163  C  5 XX      0.00542     0.08655
            164  C  5 YY      0.00504     0.08679
            165  C  5 ZZ      0.00454     0.08583
            166  C  5 XY      0.00387     0.00524
            167  C  5 XZ      0.00324     0.00372
            168  C  5 YZ      0.00000     0.00356
            169  C  5 XX      0.00959     0.09267
            170  C  5 YY      0.01283     0.09105
            171  C  5 ZZ      0.01229     0.08552
            172  C  5 XY      0.00738     0.03093
            173  C  5 XZ      0.00781     0.02133
            174  C  5 YZ      0.00000     0.01358
            175  C  5 XXX     0.00092     0.15784
            176  C  5 YYY     0.00063     0.17039
            177  C  5 ZZZ     0.00100     0.16595
            178  C  5 XXY     0.00111     0.07852
            179  C  5 XXZ     0.00089     0.08080
            180  C  5 YYX     0.00065     0.07219
            181  C  5 YYZ     0.00150     0.06713
            182  C  5 ZZX     0.00000     0.07304
            183  C  5 ZZY     0.00000     0.06525
            184  C  5 XYZ     0.00000     0.00235
            185  C  6  S      1.95557     1.55583
            186  C  6  S      0.82827     0.43278
            187  C  6  S      0.16182     0.27873
            188  C  6  S      0.32082     0.14865
            189  C  6  X      0.30202     0.23012
            190  C  6  Y      0.25979     0.20573
            191  C  6  Z      0.29810     0.22822
            192  C  6  X      0.54748     0.28037
            193  C  6  Y      0.49936     0.26461
            194  C  6  Z      0.54366     0.28059
            195  C  6  X      0.21106     0.20620
            196  C  6  Y      0.10404     0.17096
            197  C  6  Z      0.22537     0.20955
            198  C  6 XX      0.00549     0.08696
            199  C  6 YY      0.00574     0.08975
            200  C  6 ZZ      0.00372     0.08649
            201  C  6 XY      0.00438     0.00343
            202  C  6 XZ      0.00292     0.00460
            203  C  6 YZ      0.00000     0.00297
            204  C  6 XX      0.00993     0.08729
            205  C  6 YY      0.01422     0.10178
            206  C  6 ZZ      0.01062     0.08677
            207  C  6 XY      0.00844     0.02313
            208  C  6 XZ      0.00835     0.01991
            209  C  6 YZ      0.00000     0.01544
            210  C  6 XXX     0.00093     0.16138
            211  C  6 YYY     0.00079     0.16586
            212  C  6 ZZZ     0.00107     0.16627
            213  C  6 XXY     0.00113     0.07255
            214  C  6 XXZ     0.00089     0.07552
            215  C  6 YYX     0.00058     0.08168
            216  C  6 YYZ     0.00140     0.07333
            217  C  6 ZZX     0.00000     0.07579
            218  C  6 ZZY     0.00000     0.06339
            219  C  6 XYZ     0.00000     0.00252
            220  H  7  S      0.25297     0.19428
            221  H  7  S      0.45564     0.24473
            222  H  7  S      0.06553     0.11947
            223  H  7  X      0.00165     0.00218
            224  H  7  Y      0.00729     0.01054
            225  H  7  Z      0.00178     0.00241
            226  H  7  X      0.01030     0.02903
            227  H  7  Y      0.00546     0.04713
            228  H  7  Z      0.00904     0.03037
            229  H  7 XX      0.00032     0.06911
            230  H  7 YY      0.00065     0.11474
            231  H  7 ZZ      0.00097     0.07109
            232  H  7 XY      0.00011     0.00501
            233  H  7 XZ      0.00084     0.00031
            234  H  7 YZ      0.00000     0.00528
            235  H  8  S      0.24755     0.18925
            236  H  8  S      0.44915     0.23985
            237  H  8  S      0.04728     0.11475
            238  H  8  X      0.00192     0.00270
            239  H  8  Y      0.00167     0.00218
            240  H  8  Z      0.00718     0.01021
            241  H  8  X      0.00797     0.03009
            242  H  8  Y      0.00816     0.02819
            243  H  8  Z      0.00764     0.04728
            244  H  8 XX      0.00098     0.07133
            245  H  8 YY      0.00013     0.06786
            246  H  8 ZZ      0.00012     0.11030
            247  H  8 XY      0.00084     0.00044
            248  H  8 XZ      0.00079     0.00569
            249  H  8 YZ      0.00000     0.00479
            250  H  9  S      0.25111     0.18810
            251  H  9  S      0.44820     0.24120
            252  H  9  S      0.05258     0.11688
            253  H  9  X      0.00643     0.00870
            254  H  9  Y      0.00266     0.00397
            255  H  9  Z      0.00174     0.00225
            256  H  9  X      0.00878     0.04493
            257  H  9  Y      0.00667     0.03155
            258  H  9  Z      0.00857     0.02954
            259  H  9 XX      0.00032     0.10384
            260  H  9 YY      0.00093     0.07774
            261  H  9 ZZ      0.00069     0.06778
            262  H  9 XY      0.00075     0.00617
            263  H  9 XZ      0.00020     0.00454
            264  H  9 YZ      0.00000     0.00093
            265  H 10  S      0.25393     0.18567
            266  H 10  S      0.45139     0.24256
            267  H 10  S      0.06531     0.11962
            268  H 10  X      0.00466     0.00633
            269  H 10  Y      0.00260     0.00357
            270  H 10  Z      0.00342     0.00449
            271  H 10  X      0.01068     0.04194
            272  H 10  Y      0.00633     0.03172
            273  H 10  Z      0.00601     0.03605
            274  H 10 XX      0.00057     0.09107
            275  H 10 YY      0.00080     0.07536
            276  H 10 ZZ      0.00050     0.08186
            277  H 10 XY      0.00060     0.00436
            278  H 10 XZ      0.00035     0.00508
            279  H 10 YZ      0.00000     0.00286
            280  H 11  S      0.24620     0.18849
            281  H 11  S      0.44153     0.23742
            282  H 11  S      0.03665     0.11120
            283  H 11  X      0.00215     0.00341
            284  H 11  Y      0.00166     0.00216
            285  H 11  Z      0.00699     0.00975
            286  H 11  X      0.01056     0.03101
            287  H 11  Y      0.00793     0.02797
            288  H 11  Z      0.00405     0.04659
            289  H 11 XX      0.00085     0.07281
            290  H 11 YY      0.00019     0.06748
            291  H 11 ZZ      0.00015     0.10818
            292  H 11 XY      0.00092     0.00060
            293  H 11 XZ      0.00076     0.00593
            294  H 11 YZ      0.00000     0.00461
            295  H 12  S      0.25391     0.19498
            296  H 12  S      0.45130     0.24546
            297  H 12  S      0.06517     0.11952
            298  H 12  X      0.00158     0.00205
            299  H 12  Y      0.00720     0.01051
            300  H 12  Z      0.00190     0.00242
            301  H 12  X      0.01085     0.02942
            302  H 12  Y      0.00452     0.04785
            303  H 12  Z      0.00763     0.03093
            304  H 12 XX      0.00030     0.06929
            305  H 12 YY      0.00063     0.11507
            306  H 12 ZZ      0.00101     0.07121
            307  H 12 XY      0.00010     0.00480
            308  H 12 XZ      0.00079     0.00023
            309  H 12 YZ      0.00000     0.00543
            310  H 13  S      0.25297     0.18519
            311  H 13  S      0.45561     0.24162
            312  H 13  S      0.06546     0.11933
            313  H 13  X      0.00444     0.00576
            314  H 13  Y      0.00282     0.00416
            315  H 13  Z      0.00346     0.00465
            316  H 13  X      0.00584     0.03843
            317  H 13  Y      0.01319     0.03421
            318  H 13  Z      0.00577     0.03521
            319  H 13 XX      0.00062     0.08870
            320  H 13 YY      0.00068     0.07700
            321  H 13 ZZ      0.00064     0.08210
            322  H 13 XY      0.00054     0.00428
            323  H 13 XZ      0.00042     0.00494
            324  H 13 YZ      0.00000     0.00318
            325  H 14  S      0.25111     0.18874
            326  H 14  S      0.44822     0.24117
            327  H 14  S      0.05263     0.11667
            328  H 14  X      0.00621     0.00825
            329  H 14  Y      0.00284     0.00456
            330  H 14  Z      0.00178     0.00231
            331  H 14  X      0.00382     0.04370
            332  H 14  Y      0.01232     0.03385
            333  H 14  Z      0.00787     0.02884
            334  H 14 XX      0.00035     0.10260
            335  H 14 YY      0.00084     0.07948
            336  H 14 ZZ      0.00081     0.06793
            337  H 14 XY      0.00066     0.00618
            338  H 14 XZ      0.00023     0.00445
            339  H 14 YZ      0.00000     0.00109
            340  H 15  S      0.24755     0.18962
            341  H 15  S      0.44914     0.23956
            342  H 15  S      0.04727     0.11453
            343  H 15  X      0.00200     0.00292
            344  H 15  Y      0.00174     0.00246
            345  H 15  Z      0.00703     0.00986
            346  H 15  X      0.00773     0.02952
            347  H 15  Y      0.01098     0.02958
            348  H 15  Z      0.00507     0.04671
            349  H 15 XX      0.00084     0.07116
            350  H 15 YY      0.00018     0.06938
            351  H 15 ZZ      0.00014     0.10939
            352  H 15 XY      0.00078     0.00050
            353  H 15 XZ      0.00092     0.00587
            354  H 15 YZ      0.00000     0.00455

          ----- MULLIKEN ATOMIC OVERLAP POPULATIONS -----
          (OFF-DIAGONAL ELEMENTS NEED TO BE MULTIPLIED BY 2)

             1           2           3           4           5

    1    8.5732061
    2   -0.0104360  13.3070442
    3    0.0323967   0.2211097   8.5483649
    4   -0.0006383   0.3411053  -0.0209254   5.0006701
    5    0.0048503   0.3351282  -0.0127362  -0.0320129   5.0866838
    6   -0.0006382   0.3411007  -0.0209223  -0.0334286  -0.0320216
    7    0.0005489  -0.0132948   0.0011180   0.3597316  -0.0031300
    8    0.0006181  -0.0142328   0.0010332   0.3594118   0.0002202
    9    0.0001865  -0.0169036   0.0008664   0.3653285   0.0020030
   10    0.0019864  -0.0204918  -0.0001285   0.0025344   0.3643911
   11   -0.0000293  -0.0130085   0.0017175  -0.0006526   0.3532709
   12    0.0019764  -0.0204741  -0.0001204  -0.0030136   0.3643776
   13    0.0005468  -0.0133215   0.0011115   0.0025472  -0.0031078
   14    0.0001879  -0.0169026   0.0008626  -0.0019069   0.0020036
   15    0.0006174  -0.0142128   0.0010331  -0.0009127   0.0002024

             6           7           8           9          10

    6    5.0007939
    7    0.0025497   0.4938772
    8   -0.0009278  -0.0132947   0.4592197
    9   -0.0018862  -0.0162645  -0.0102020   0.4662826
   10   -0.0030307   0.0000067   0.0000143  -0.0000635   0.4961860
   11   -0.0006457  -0.0000346   0.0000329   0.0000421  -0.0076325
   12    0.0025354   0.0007820  -0.0002640  -0.0000365  -0.0271171
   13    0.3597875  -0.0000682   0.0000066   0.0000186   0.0007813
   14    0.3653156   0.0000173  -0.0002343   0.0004854  -0.0000373
   15    0.3593833   0.0000081  -0.0000048  -0.0002407  -0.0002583

            11          12          13          14          15

   11    0.4351480
   12   -0.0076384   0.4959150
   13   -0.0000386   0.0000079   0.4937280
   14    0.0000431  -0.0000635  -0.0162773   0.4664079
   15    0.0000346   0.0000126  -0.0132752  -0.0102108   0.4591968

          TOTAL MULLIKEN AND LOWDIN ATOMIC POPULATIONS
       ATOM         MULL.POP.    CHARGE          LOW.POP.     CHARGE
    1 LA            8.605380    2.394620         8.788247    2.211753
    2 P            14.392210    0.607790        14.330352    0.669648
    3 O             8.754781   -0.754781         8.391168   -0.391168
    4 C             6.337838   -0.337838         6.023168   -0.023168
    5 C             6.430123   -0.430123         6.045729   -0.045729
    6 C             6.337965   -0.337965         6.039145   -0.039145
    7 H             0.812553    0.187447         0.945685    0.054315
    8 H             0.781396    0.218604         0.924910    0.075090
    9 H             0.789616    0.210384         0.928123    0.071877
   10 H             0.807140    0.192860         0.932530    0.067470
   11 H             0.760609    0.239391         0.917581    0.082419
   12 H             0.806879    0.193121         0.949183    0.050817
   13 H             0.812447    0.187553         0.928745    0.071255
   14 H             0.789691    0.210309         0.929805    0.070195
   15 H             0.781373    0.218627         0.925628    0.074372

          MULLIKEN SPHERICAL HARMONIC POPULATIONS
       ATOM           S       P       D      F      G      H      I    TOTAL
    1 LA            2.01    6.10    0.50   0.00   0.00   0.00   0.00    8.61
    2 P             5.34    8.40    0.58   0.07   0.00   0.00   0.00   14.39
    3 O             3.79    4.92    0.04   0.00   0.00   0.00   0.00    8.75
    4 C             3.27    2.99    0.07   0.01   0.00   0.00   0.00    6.34
    5 C             3.30    3.05    0.07   0.01   0.00   0.00   0.00    6.43
    6 C             3.27    2.99    0.07   0.01   0.00   0.00   0.00    6.34
    7 H             0.77    0.04    0.00   0.00   0.00   0.00   0.00    0.81
    8 H             0.74    0.03    0.00   0.00   0.00   0.00   0.00    0.78
    9 H             0.75    0.03    0.00   0.00   0.00   0.00   0.00    0.79
   10 H             0.77    0.03    0.00   0.00   0.00   0.00   0.00    0.81
   11 H             0.72    0.03    0.00   0.00   0.00   0.00   0.00    0.76
   12 H             0.77    0.03    0.00   0.00   0.00   0.00   0.00    0.81
   13 H             0.77    0.04    0.00   0.00   0.00   0.00   0.00    0.81
   14 H             0.75    0.03    0.00   0.00   0.00   0.00   0.00    0.79
   15 H             0.74    0.03    0.00   0.00   0.00   0.00   0.00    0.78

          -------------------------------
          BOND ORDER AND VALENCE ANALYSIS     BOND ORDER THRESHOLD=0.050
          -------------------------------

                   BOND                       BOND                       BOND
  ATOM PAIR DIST  ORDER      ATOM PAIR DIST  ORDER      ATOM PAIR DIST  ORDER
    1   3  2.104  0.690        2   3  1.698  0.815        2   4  1.770  1.025
    2   5  1.779  1.002        2   6  1.770  1.025        4   7  1.089  0.876
    4   8  1.095  0.857        4   9  1.090  0.872        5  10  1.090  0.875
    5  11  1.096  0.854        5  12  1.090  0.875        6  13  1.089  0.876
    6  14  1.090  0.872        6  15  1.095  0.857

                       TOTAL       BONDED        FREE
      ATOM            VALENCE     VALENCE     VALENCE
    1 LA                0.689       0.767      -0.078
    2 P                 4.615       4.259       0.356
    3 O                 2.097       1.536       0.561
    4 C                 3.924       3.633       0.291
    5 C                 3.929       3.631       0.298
    6 C                 3.924       3.633       0.291
    7 H                 0.981       0.930       0.051
    8 H                 0.967       0.916       0.050
    9 H                 0.971       0.921       0.050
   10 H                 0.974       0.922       0.052
   11 H                 0.963       0.914       0.050
   12 H                 0.974       0.922       0.052
   13 H                 0.981       0.929       0.051
   14 H                 0.971       0.921       0.050
   15 H                 0.967       0.916       0.050

          ---------------------
          ELECTROSTATIC MOMENTS
          ---------------------

 POINT   1           X           Y           Z (BOHR)    CHARGE
                 0.651501    1.086077   -4.950690        3.00 (A.U.)
         DX          DY          DZ         /D/  (DEBYE)
     1.496182    1.013076   -0.753503    1.957716
 ...... END OF PROPERTY EVALUATION ......
 CPU     0: STEP CPU TIME=     0.21 TOTAL CPU TIME=     4400.8 (   73.3 MIN)
 TOTAL WALL CLOCK TIME=     4469.7 SECONDS, CPU UTILIZATION IS  98.46%
  $VIB   
          IVIB=   0 IATOM=   0 ICOORD=   0 E=     -565.5987180955
 -9.374252674E-07-2.414578996E-06 5.209326972E-06 1.877360186E-06 3.275598600E-05
  4.707759170E-05-5.203948559E-06-6.636715378E-06-1.210478302E-05 3.723157957E-06
 -2.039600158E-05 3.462380294E-05-4.030425916E-06-5.114137784E-05-2.427224122E-05
  5.826413571E-05-7.112641041E-06 4.092134873E-06-1.293962533E-05-4.073804558E-06
 -1.828594144E-05 6.520942157E-06 8.403694130E-06-2.454608281E-06-2.649215905E-06
  1.219058364E-05-2.057034584E-05-1.048871687E-06 1.268955701E-05-1.249638199E-05
 -6.298385971E-07 1.865064069E-05 2.927822936E-06 5.959124694E-06 5.704308860E-06
  1.535707012E-05-1.627335029E-05-4.049554485E-06-1.371373696E-05-2.535564137E-06
  4.389577837E-06-1.207765624E-05-3.009645501E-05 1.040325708E-06 6.687945447E-06
  1.496181766E+00 1.013076242E+00-7.535034906E-01
 ......END OF GEOMETRY SEARCH......
 CPU     0: STEP CPU TIME=     0.01 TOTAL CPU TIME=     4400.8 (   73.3 MIN)
 TOTAL WALL CLOCK TIME=     4469.7 SECONDS, CPU UTILIZATION IS  98.46%
               2991967  WORDS OF DYNAMIC MEMORY USED
 EXECUTION OF GAMESS TERMINATED NORMALLY Sun Jun 12 15:03:49 2016
 DDI: 44487344 bytes (42.4 MB / 5 MWords) used by master data server.

 ----------------------------------------
 CPU timing information for all processes
 ========================================
 0: 4394.505 + 6.421 = 4400.926
 1: 4399.70 + 5.910 = 4404.980
 2: 4396.737 + 6.254 = 4402.991
 3: 4394.781 + 6.132 = 4400.913
 4: 4399.902 + 6.236 = 4406.138
 5: 4399.965 + 6.189 = 4406.154
 6: 4401.411 + 6.248 = 4407.659
 7: 4399.939 + 6.241 = 4406.180
 8: 4401.725 + 6.471 = 4408.196
 9: 4402.474 + 6.128 = 4408.602
 10: 4400.642 + 6.150 = 4406.792
 11: 4402.349 + 6.359 = 4408.708
 12: 4400.780 + 6.404 = 4407.185
 13: 4402.129 + 6.26 = 4408.155
 14: 4399.832 + 6.154 = 4405.986
 15: 4399.176 + 4.695 = 4403.871
 16: 0.16 + 0.75 = 0.92
 17: 0.16 + 0.81 = 0.98
 18: 0.11 + 0.80 = 0.92
 19: 0.09 + 0.88 = 0.98
 20: 0.13 + 0.83 = 0.97
 21: 0.14 + 0.76 = 0.91
 22: 0.12 + 0.85 = 0.98
 23: 0.14 + 0.73 = 0.88
 24: 0.18 + 0.74 = 0.93
 25: 0.20 + 0.66 = 0.87
 26: 0.17 + 0.76 = 0.94
 27: 0.13 + 0.76 = 0.90
 28: 0.09 + 0.83 = 0.93
 29: 0.09 + 0.84 = 0.94
 30: 0.05 + 0.81 = 0.87
 31: 0.14 + 0.74 = 0.89
 ----------------------------------------
unset echo
----- accounting info -----
Files used on the master node node192 were:
-rw-r--r-- 1 fzahari quantum     2153 Jun 12 13:49 /local/scratch/fzahari/196913.share/ang_var-1480.F05
-rw-r--r-- 1 fzahari quantum 17178000 Jun 12 15:03 /local/scratch/fzahari/196913.share/ang_var-1480.F10
-rw-r--r-- 1 fzahari quantum        8 Jun 12 13:49 /local/scratch/fzahari/196913.share/ang_var-1480.nodes.mpd
ls: No match.
ls: No match.
ls: No match.
Sun Jun 12 15:03:51 CDT 2016
70396.255u 103.831s 1:14:34.45 1575.6%	0+0k 104+613744io 0pf+0w
