----- GAMESS execution script 'rungms' -----
This job is running on host node240
under operating system Linux at Sun Jun 12 01:40:35 CDT 2016
PBS has assigned the following compute nodes to this run:
node240
Available scratch disk space (Kbyte units) at beginning of the job is
Filesystem           1K-blocks      Used Available Use% Mounted on
/dev/sda7            2670838024   1348932 2533818308   1% /local
GAMESS temporary binary files will be written to /local/scratch/fzahari/196892.share
GAMESS supplementary output files will be written to /work1/quantum/fzahari/scr
Copying input file ang_var-1520.inp to your run's scratch directory...
cp ang_var-1520.inp /local/scratch/fzahari/196892.share/ang_var-1520.F05
unset echo
setenv I_MPI_WAIT_MODE enable
setenv I_MPI_PIN disable
setenv I_MPI_DEBUG 0
setenv I_MPI_STATS 0
setenv I_MPI_FABRICS dapl
setenv I_MPI_DAT_LIBRARY libdat2.so
unset echo
MPI kickoff will run GAMESS on 16 cores in 1 nodes.
The binary to be executed is /home/mschmidt/gamess/gamess.132.x
MPI will run 16 compute processes and 16 data servers,
    placing 16 of each process type onto each node.
The scratch disk space on each node is /local/scratch/fzahari/196892.share, with free space
Filesystem           1K-blocks      Used Available Use% Mounted on
/dev/sda7            2670838024   1348956 2533818284   1% /local
setenv I_MPI_HYDRA_ENV all
setenv I_MPI_PERHOST 32
unset echo
mpiexec.hydra -f /local/scratch/fzahari/196892.share/ang_var-1520.processes.mpd -n 32 /home/mschmidt/gamess/gamess.132.x
          ******************************************************
          *         GAMESS VERSION =  5 DEC 2014 (R1)          *
          *             FROM IOWA STATE UNIVERSITY             *
          * M.W.SCHMIDT, K.K.BALDRIDGE, J.A.BOATZ, S.T.ELBERT, *
          *   M.S.GORDON, J.H.JENSEN, S.KOSEKI, N.MATSUNAGA,   *
          *          K.A.NGUYEN, S.J.SU, T.L.WINDUS,           *
          *       TOGETHER WITH M.DUPUIS, J.A.MONTGOMERY       *
          *         J.COMPUT.CHEM.  14, 1347-1363(1993)        *
          **************** 64 BIT INTEL VERSION ****************

  SINCE 1993, STUDENTS AND POSTDOCS WORKING AT IOWA STATE UNIVERSITY
  AND ALSO IN THEIR VARIOUS JOBS AFTER LEAVING ISU HAVE MADE IMPORTANT
  CONTRIBUTIONS TO THE CODE:
     IVANA ADAMOVIC, CHRISTINE AIKENS, YURI ALEXEEV, POOJA ARORA,
     ANDREY ASADCHEV, ROB BELL, PRADIPTA BANDYOPADHYAY, JONATHAN BENTZ,
     BRETT BODE, KURT BRORSEN, CALEB CARLIN, GALINA CHABAN, WEI CHEN,
     CHEOL HO CHOI, PAUL DAY, ALBERT DEFUSCO, NUWAN DESILVA, TIM DUDLEY,
     DMITRI FEDOROV, GRAHAM FLETCHER, MARK FREITAG, KURT GLAESEMANN,
     DAN KEMP, GRANT MERRILL, NORIYUKI MINEZAWA, JONATHAN MULLIN,
     TAKESHI NAGATA, SEAN NEDD, HEATHER NETZLOFF, BOSILJKA NJEGIC, RYAN OLSON,
     MIKE PAK, SPENCER PRUITT, LUKE ROSKOP, JIM SHOEMAKER, LYUDMILA SLIPCHENKO,
     TONY SMITH, SAROM SOK, JIE SONG, TETSUYA TAKETSUGU, SIMON WEBB,
     PENG XU, SOOHAENG YOO, FEDERICO ZAHARIEV

  ADDITIONAL CODE HAS BEEN PROVIDED BY COLLABORATORS IN OTHER GROUPS:
     IOWA STATE UNIVERSITY:
          JOE IVANIC, AARON WEST, LAIMUTIS BYTAUTAS, KLAUS RUEDENBERG
     UNIVERSITY OF TOKYO: KIMIHIKO HIRAO, TAKAHITO NAKAJIMA,
          TAKAO TSUNEDA, MUNEAKI KAMIYA, SUSUMU YANAGISAWA,
          KIYOSHI YAGI, MAHITO CHIBA, SEIKEN TOKURA, NAOAKI KAWAKAMI
     UNIVERSITY OF AARHUS: FRANK JENSEN
     UNIVERSITY OF IOWA: VISVALDAS KAIRYS, HUI LI
     NATIONAL INST. OF STANDARDS AND TECHNOLOGY: WALT STEVENS, DAVID GARMER
     UNIVERSITY OF PISA: BENEDETTA MENNUCCI, JACOPO TOMASI
     UNIVERSITY OF MEMPHIS: HENRY KURTZ, PRAKASHAN KORAMBATH
     UNIVERSITY OF ALBERTA: TOBY ZENG, MARIUSZ KLOBUKOWSKI
     UNIVERSITY OF NEW ENGLAND: MARK SPACKMAN
     MIE UNIVERSITY: HIROAKI UMEDA
     NAT. INST. OF ADVANCED INDUSTRIAL SCIENCE AND TECHNOLOGY: KAZUO KITAURA
     MICHIGAN STATE UNIVERSITY:
          KAROL KOWALSKI, MARTA WLOCH, JEFFREY GOUR, JESSE LUTZ,
          WEI LI, PIOTR PIECUCH
     UNIVERSITY OF SILESIA: MONIKA MUSIAL, STANISLAW KUCHARSKI
     FACULTES UNIVERSITAIRES NOTRE-DAME DE LA PAIX:
          OLIVIER QUINET, BENOIT CHAMPAGNE
     UNIVERSITY OF CALIFORNIA - SANTA BARBARA: BERNARD KIRTMAN
     INSTITUTE FOR MOLECULAR SCIENCE:
          KAZUYA ISHIMURA, MICHIO KATOUDA, AND SHIGERU NAGASE
     UNIVERSITY OF NOTRE DAME: ANNA POMOGAEVA, DAN CHIPMAN
     KYUSHU UNIVERSITY:
          HARUYUKI NAKANO,
          FENG LONG GU, JACEK KORCHOWIEC, MARCIN MAKOWSKI, AND YURIKO AOKI,
          HIROTOSHI MORI AND EISAKU MIYOSHI
     PENNSYLVANIA STATE UNIVERSITY:
          TZVETELIN IORDANOV, CHET SWALINA, JONATHAN SKONE,
          SHARON HAMMES-SCHIFFER
     WASEDA UNIVERSITY:
          MASATO KOBAYASHI, TOMOKO AKAMA, TSUGUKI TOUMA,
          TAKESHI YOSHIKAWA, YASUHIRO IKABATA, HIROMI NAKAI
     NANJING UNIVERSITY: SHUHUA LI
     UNIVERSITY OF NEBRASKA:
          PEIFENG SU, DEJUN SI, NANDUN THELLAMUREGE, YALI WANG, HUI LI
     UNIVERSITY OF ZURICH: ROBERTO PEVERATI, KIM BALDRIDGE
     N. COPERNICUS UNIVERSITY AND JACKSON STATE UNIVERSITY:
          MARIA BARYSZ
     UNIVERSITY OF COPENHAGEN: CASPER STEINMANN
     TOKYO INSTITUTE OF TECHNOLOGY: HIROYA NAKATA
     NAGOYA UNIVERSITY: YOSHIO NISHIMOTO, STEPHAN IRLE


 PARALLEL VERSION RUNNING ON       16 PROCESSORS IN        1 NODES.

 EXECUTION OF GAMESS BEGUN Sun Jun 12 01:40:36 2016

            ECHO OF THE FIRST FEW INPUT CARDS -
 INPUT CARD> $ZMAT DLC=.T. AUTO=.T. $END                                                    
 INPUT CARD> $ZMAT IFZMAT(1)=2, 1 , 3 , 2  FVALUE(1)= 152.0 $END                            
 INPUT CARD> $CONTRL COORD=UNIQUE NZVAR= 39 $END                                            
 INPUT CARD> $CONTRL ICHARG=+3 MULT=1                                                       
 INPUT CARD>         MPLEVL=2                                                               
 INPUT CARD>         SCFTYP=RHF                                                             
 INPUT CARD>         MAXIT=200 ISPHER=1 ICUT=11                                             
 INPUT CARD>         RUNTYP=OPTIMIZE                                                        
 INPUT CARD>         PP=READ                                                                
 INPUT CARD>         $END                                                                   
 INPUT CARD> $SCF    DIRSCF=.T. FDIFF=.F. $END                                              
 INPUT CARD> $TRANS  DIRTRF=.T. $END                                                        
 INPUT CARD> $SYSTEM MWORDS=300 MEMDDI=300 $END                                             
 INPUT CARD> $GUESS  GUESS=HUCKEL $END                                                      
 INPUT CARD> $BASIS  BASNAM(1)=METAL,                                                       
 INPUT CARD>                   LIGP,                                                        
 INPUT CARD>                   LIGO,                                                        
 INPUT CARD>                   LIGC,                                                        
 INPUT CARD>                   LIGC,                                                        
 INPUT CARD>                   LIGC,                                                        
 INPUT CARD>                   LIGH,                                                        
 INPUT CARD>                   LIGH,                                                        
 INPUT CARD>                   LIGH,                                                        
 INPUT CARD>                   LIGH,                                                        
 INPUT CARD>                   LIGH,                                                        
 INPUT CARD>                   LIGH,                                                        
 INPUT CARD>                   LIGH,                                                        
 INPUT CARD>                   LIGH,                                                        
 INPUT CARD>                   LIGH                                                         
 INPUT CARD> $END                                                                           
 INPUT CARD> $DATA                                                                          
 INPUT CARD>                                                                                
 INPUT CARD> C1                                                                             
 INPUT CARD> LA 57.0 0.31435 0.88028 -4.02887                                               
 INPUT CARD> P 15.0 0.300226824876 0.143549148457 -0.414826677081                           
 INPUT CARD> O 8.0 -0.10013 0.67027 -1.98246                                                
 INPUT CARD> C 6.0 -0.997717554993 0.711017611784 0.649597713892                            
 INPUT CARD> C 6.0 1.86371155169 0.880416329936 -0.0246369251848                            
 INPUT CARD> C 6.0 0.387345438792 -1.62466328249 -0.489396236865                            
 INPUT CARD> H 1.0 -1.05369246724 1.79889601982 0.659478297741                              
 INPUT CARD> H 1.0 -0.744713999759 0.374253242031 1.66070813032                             
 INPUT CARD> H 1.0 -1.95513481961 0.269461699907 0.375611394908                             
 INPUT CARD> H 1.0 2.64192409579 0.541514402575 -0.707445767568                             
 INPUT CARD> H 1.0 2.12642195007 0.544308486968 0.984223298224                              
 INPUT CARD> H 1.0 1.79624334165 1.96761108495 -0.012102113684                              
 INPUT CARD> H 1.0 1.17142926723 -1.95350351076 -1.17041038382                              
 INPUT CARD> H 1.0 -0.575638720845 -2.05690699204 -0.758674544834                           
 INPUT CARD> H 1.0 0.645142699181 -1.96932325369 0.517848320177                             
 INPUT CARD> $END                                                                           
 INPUT CARD>!                                                                               
  300000000 WORDS OF MEMORY AVAILABLE

     BASIS OPTIONS
     -------------
     GBASIS=             IGAUSS=       0      POLAR=NONE    
     NDFUNC=       0     NFFUNC=       0     DIFFSP=       F
     NPFUNC=       0      DIFFS=       F     BASNAM=METAL   

 USING BASNAM FOR ATOM CUSTOMIZED BASIS CONSTRUCTION
     ----------------
     ATOM  BASIS NAME
     ----------------
       1   METAL   
       2   LIGP    
       3   LIGO    
       4   LIGC    
       5   LIGC    
       6   LIGC    
       7   LIGH    
       8   LIGH    
       9   LIGH    
      10   LIGH    
      11   LIGH    
      12   LIGH    
      13   LIGH    
      14   LIGH    
      15   LIGH    
 NOW LOCATING ALL   15 BASIS SETS IN YOUR INPUT FILE...
 FOUND BASIS SET  $METAL 
  SBKJC                        
                               
  $END                         
 FOUND BASIS SET  $LIGP  
  CCT                          
                               
  $END                         
 FOUND BASIS SET  $LIGO  
  CCT                          
                               
  $END                         
 FOUND BASIS SET  $LIGC  
  CCT                          
                               
  $END                         
 FOUND BASIS SET  $LIGH  
  CCT                          
                               
  $END                         
    5 UNIQUE ATOM CUSTOMIZED BASIS SETS WERE FOUND.

     SEARCHING FOR $MCP
     $MCP GROUP NOT FOUND


     RUN TITLE
     ---------
                                                                                 

 THE POINT GROUP OF THE MOLECULE IS C1      
 THE ORDER OF THE PRINCIPAL AXIS IS     0

 ATOM      ATOMIC                      COORDINATES (BOHR)
           CHARGE         X                   Y                   Z
 LA         57.0     0.5940353642        1.6634879925       -7.6134603402
 P          15.0     0.5673464332        0.2712685564       -0.7839087521
 O           8.0    -0.1892182632        1.2666266378       -3.7463061816
 C           6.0    -1.8854127921        1.3436284587        1.2275616815
 C           6.0     3.5219041528        1.6637456187       -0.0465570378
 C           6.0     0.7319767419       -3.0701684262       -0.9248247871
 H           1.0    -1.9911900384        3.3994205579        1.2462332776
 H           1.0    -1.4073053988        0.7072360775        3.1382833119
 H           1.0    -3.6946690781        0.5092087770        0.7098026142
 H           1.0     4.9925126214        1.0233138393       -1.3368786519
 H           1.0     4.0183548199        1.0285938932        1.8599123444
 H           1.0     3.3944077230        3.7182458010       -0.0228696787
 H           1.0     2.2136803291       -3.6915863514       -2.2117549186
 H           1.0    -1.0877994503       -3.8869905972       -1.4336870036
 H           1.0     1.2191429244       -3.7214813307        0.9785914283

          INTERNUCLEAR DISTANCES (ANGS.)
          ------------------------------

                1 LA         2 P          3 O          4 C          5 C     

   1 LA      0.0000000    3.6883982    2.0984975 *  4.8619164    4.2935305  
   2 P       3.6883982    0.0000000    1.7015272 *  1.7719140 *  1.7719215 *
   3 O       2.0984975 *  1.7015272 *  0.0000000    2.7811961 *  2.7809902 *
   4 C       4.8619164    1.7719140 *  2.7811961 *  0.0000000    2.9446672 *
   5 C       4.2935305    1.7719215 *  2.7809902 *  2.9446672 *  0.0000000  
   6 C       4.3368126    1.7719271 *  2.7809334 *  2.9446752 *  2.9446701 *
   7 H       4.9695076    2.3931991 *  3.0270309    1.0893623 *  3.1341450  
   8 H       5.8093871    2.3351596 *  3.7115749    1.0953380 *  3.1465017  
   9 H       4.9923057    2.3931783 *  3.0269111    1.0893521 *  3.8880653  
  10 H       4.0699167    2.3932297 *  3.0267309    3.8880959    1.0893563 *
  11 H       5.3411222    2.3351526 *  3.7114161    3.1464287    1.0953466 *
  12 H       4.4173206    2.3932101 *  3.0268194    3.1341811    1.0893583 *
  13 H       4.1153014    2.3932259 *  3.0266277    3.8880972    3.1341910  
  14 H       4.4847883    2.3931943 *  3.0267563    3.1341327    3.8880727  
  15 H       5.3760869    2.3351829 *  3.7113913    3.1465179    3.1464609  

                6 C          7 H          8 H          9 H         10 H     

   1 LA      4.3368126    4.9695076    5.8093871    4.9923057    4.0699167  
   2 P       1.7719271 *  2.3931991 *  2.3351596 *  2.3931783 *  2.3932297 *
   3 O       2.7809334 *  3.0270309    3.7115749    3.0269111    3.0267309  
   4 C       2.9446752 *  1.0893623 *  1.0953380 *  1.0893521 *  3.8880959  
   5 C       2.9446701 *  3.1341450    3.1465017    3.8880653    1.0893563 *
   6 C       0.0000000    3.8880922    3.1464543    3.1341923    3.1341660  
   7 H       3.8880922    0.0000000    1.7684841 *  1.7978732 *  4.1360696  
   8 H       3.1464543    1.7684841 *  0.0000000    1.7684947 *  4.1358732  
   9 H       3.1341923    1.7978732 *  1.7684947 *  0.0000000    4.7307479  
  10 H       3.1341660    4.1360696    4.1358732    4.7307479    0.0000000  
  11 H       3.1464870    3.4340322    2.9546526 *  4.1358258    1.7684724 *
  12 H       3.8880893    2.9328517 *  3.4341735    4.1360454    1.7978961 *
  13 H       1.0893593 *  4.7307675    4.1358540    4.1360803    2.9328835 *
  14 H       1.0893502 *  4.1360500    3.4340267    2.9328494 *  4.1360765  
  15 H       1.0953500 *  4.1358888    2.9546880 *  3.4342150    3.4340628  

               11 H         12 H         13 H         14 H         15 H     

   1 LA      5.3411222    4.4173206    4.1153014    4.4847883    5.3760869  
   2 P       2.3351526 *  2.3932101 *  2.3932259 *  2.3931943 *  2.3351829 *
   3 O       3.7114161    3.0268194    3.0266277    3.0267563    3.7113913  
   4 C       3.1464287    3.1341811    3.8880972    3.1341327    3.1465179  
   5 C       1.0953466 *  1.0893583 *  3.1341910    3.8880727    3.1464609  
   6 C       3.1464870    3.8880893    1.0893593 *  1.0893502 *  1.0953500 *
   7 H       3.4340322    2.9328517 *  4.7307675    4.1360500    4.1358888  
   8 H       2.9546526 *  3.4341735    4.1358540    3.4340267    2.9546880 *
   9 H       4.1358258    4.1360454    4.1360803    2.9328494 *  3.4342150  
  10 H       1.7684724 *  1.7978961 *  2.9328835 *  4.1360765    3.4340628  
  11 H       0.0000000    1.7684662 *  3.4341698    4.1358369    2.9546638 *
  12 H       1.7684662 *  0.0000000    4.1360864    4.7307442    4.1358593  
  13 H       3.4341698    4.1360864    0.0000000    1.7979058 *  1.7684584 *
  14 H       4.1358369    4.7307442    1.7979058 *  0.0000000    1.7684708 *
  15 H       2.9546638 *  4.1358593    1.7684584 *  1.7684708 *  0.0000000  

  * ... LESS THAN  3.000


     ATOMIC BASIS SET
     ----------------
 THE CONTRACTED PRIMITIVE FUNCTIONS HAVE BEEN UNNORMALIZED
 THE CONTRACTED BASIS FUNCTIONS ARE NOW NORMALIZED TO UNITY

  SHELL TYPE  PRIMITIVE        EXPONENT          CONTRACTION COEFFICIENT(S)

 LA        

      1   L       1             9.1730000   -0.054833023521   -0.009797991527
      1   L       2             3.1200000    0.676604290237    0.231261800020
      1   L       3             2.1040000   -1.034429443730   -0.601214480110
      1   L       4             1.3200000   -0.518907222591    0.195188831214
      1   L       5             0.4960000    1.631603699894    1.076136069429

      2   D       6             1.2380000   -0.053797021791
      2   D       7             0.6061000    0.380144153981
      2   D       8             0.2518000    0.720349291785

      3   D       9             0.0978700    1.000000000000

      4   L      10             0.6182000   -0.107095028128   -0.051868986063
      4   L      11             0.0454600    1.033448271434    1.008107729120

      5   L      12             0.0177500    1.000000000000    1.000000000000

      6   L      13             0.2004000    1.000000000000    1.000000000000

      7   D      14             0.0353600    1.000000000000

 P         

      8   S      15        312400.0000000    0.000057689641
      8   S      16         46800.0000000    0.000448246591
      8   S      17         10650.0000000    0.002349131061
      8   S      18          3018.0000000    0.009781571802
      8   S      19           986.8000000    0.034142936511
      8   S      20           357.4000000    0.100192955985
      8   S      21           139.6000000    0.234346168617
      8   S      22            57.6300000    0.382391849918
      8   S      23            24.6000000    0.318052941833
      8   S      24            10.1200000    0.070770999093
      8   S      25             4.2830000   -0.001817789630
      8   S      26             1.8050000    0.002161561737
      8   S      27             0.2782000    0.000432249354

      9   S      28        312400.0000000   -0.000016380204
      9   S      29         46800.0000000   -0.000127233535
      9   S      30         10650.0000000   -0.000668625166
      9   S      31          3018.0000000   -0.002795303744
      9   S      32           986.8000000   -0.009928227435
      9   S      33           357.4000000   -0.030244566456
      9   S      34           139.6000000   -0.077884705328
      9   S      35            57.6300000   -0.156724571545
      9   S      36            24.6000000   -0.198042753651
      9   S      37            10.1200000    0.037971251521
      9   S      38             4.2830000    0.552751544147
      9   S      39             1.8050000    0.542611452452
      9   S      40             0.2782000   -0.009675942874

     10   S      41        312400.0000000    0.000006865735
     10   S      42         46800.0000000    0.000053281983
     10   S      43         10650.0000000    0.000280421002
     10   S      44          3018.0000000    0.001170789768
     10   S      45           986.8000000    0.004173591138
     10   S      46           357.4000000    0.012720496749
     10   S      47           139.6000000    0.033152766352
     10   S      48            57.6300000    0.067671246836
     10   S      49            24.6000000    0.089831018862
     10   S      50            10.1200000   -0.020305232360
     10   S      51             4.2830000   -0.313280408979
     10   S      52             1.8050000   -0.563687905527
     10   S      53             0.2782000    1.117494073734

     11   S      54             0.6158000    1.000000000000

     12   S      55             0.1055000    1.000000000000

     13   P      56           504.9000000    0.002433660431
     13   P      57           119.4000000    0.019305559477
     13   P      58            37.9600000    0.088473106893
     13   P      59            13.9500000    0.254701981099
     13   P      60             5.4570000    0.440199242653
     13   P      61             2.1770000    0.383632006272
     13   P      62             0.2877000   -0.003946337074

     14   P      63           504.9000000   -0.000954298933
     14   P      64           119.4000000   -0.007664025747
     14   P      65            37.9600000   -0.035465925259
     14   P      66            13.9500000   -0.106164716437
     14   P      67             5.4570000   -0.187210586037
     14   P      68             2.1770000   -0.181495819791
     14   P      69             0.2877000    0.991672644618

     15   P      70             0.8010000    1.000000000000

     16   P      71             0.0971400    1.000000000000

     17   D      72             0.6480000    1.000000000000

     18   D      73             0.2180000    1.000000000000

     19   F      74             0.4520000    1.000000000000

     20   D      75             3.1200000    1.000000000000

 O         

     21   S      76         15330.0000000    0.000520198307
     21   S      77          2299.0000000    0.004023344781
     21   S      78           522.4000000    0.020729083329
     21   S      79           147.3000000    0.081082327080
     21   S      80            47.5500000    0.236226352118
     21   S      81            16.7600000    0.443518209420
     21   S      82             6.2070000    0.358670588689
     21   S      83             0.6882000   -0.008349797237

     22   S      84         15330.0000000   -0.000197236012
     22   S      85          2299.0000000   -0.001535010700
     22   S      86           522.4000000   -0.007951183914
     22   S      87           147.3000000   -0.032113452892
     22   S      88            47.5500000   -0.100269643049
     22   S      89            16.7600000   -0.234047111838
     22   S      90             6.2070000   -0.301410927756
     22   S      91             0.6882000    1.034919649508

     23   S      92             1.7520000    1.000000000000

     24   S      93             0.2384000    1.000000000000

     25   P      94            34.4600000    0.041163489568
     25   P      95             7.7490000    0.257762835858
     25   P      96             2.2800000    0.802419274427

     26   P      97             0.7156000    1.000000000000

     27   P      98             0.2140000    1.000000000000

     28   D      99             2.3140000    1.000000000000

     29   D     100             0.6450000    1.000000000000

     30   F     101             1.4280000    1.000000000000

 C         

     31   S     102          8236.0000000    0.000542430189
     31   S     103          1235.0000000    0.004196427901
     31   S     104           280.8000000    0.021540914108
     31   S     105            79.2700000    0.083614949614
     31   S     106            25.5900000    0.239871618922
     31   S     107             8.9970000    0.443751820060
     31   S     108             3.3190000    0.353579696469
     31   S     109             0.3643000   -0.009176366076

     32   S     110          8236.0000000   -0.000196392234
     32   S     111          1235.0000000   -0.001525950274
     32   S     112           280.8000000   -0.007890449028
     32   S     113            79.2700000   -0.031514870532
     32   S     114            25.5900000   -0.096910008320
     32   S     115             8.9970000   -0.220541526288
     32   S     116             3.3190000   -0.296069112937
     32   S     117             0.3643000    1.040503432950

     33   S     118             0.9059000    1.000000000000

     34   S     119             0.1285000    1.000000000000

     35   P     120            18.7100000    0.039426387165
     35   P     121             4.1330000    0.244088984924
     35   P     122             1.2000000    0.815492008943

     36   P     123             0.3827000    1.000000000000

     37   P     124             0.1209000    1.000000000000

     38   D     125             1.0970000    1.000000000000

     39   D     126             0.3180000    1.000000000000

     40   F     127             0.7610000    1.000000000000

 C         

     41   S     128          8236.0000000    0.000542430189
     41   S     129          1235.0000000    0.004196427901
     41   S     130           280.8000000    0.021540914108
     41   S     131            79.2700000    0.083614949614
     41   S     132            25.5900000    0.239871618922
     41   S     133             8.9970000    0.443751820060
     41   S     134             3.3190000    0.353579696469
     41   S     135             0.3643000   -0.009176366076

     42   S     136          8236.0000000   -0.000196392234
     42   S     137          1235.0000000   -0.001525950274
     42   S     138           280.8000000   -0.007890449028
     42   S     139            79.2700000   -0.031514870532
     42   S     140            25.5900000   -0.096910008320
     42   S     141             8.9970000   -0.220541526288
     42   S     142             3.3190000   -0.296069112937
     42   S     143             0.3643000    1.040503432950

     43   S     144             0.9059000    1.000000000000

     44   S     145             0.1285000    1.000000000000

     45   P     146            18.7100000    0.039426387165
     45   P     147             4.1330000    0.244088984924
     45   P     148             1.2000000    0.815492008943

     46   P     149             0.3827000    1.000000000000

     47   P     150             0.1209000    1.000000000000

     48   D     151             1.0970000    1.000000000000

     49   D     152             0.3180000    1.000000000000

     50   F     153             0.7610000    1.000000000000

 C         

     51   S     154          8236.0000000    0.000542430189
     51   S     155          1235.0000000    0.004196427901
     51   S     156           280.8000000    0.021540914108
     51   S     157            79.2700000    0.083614949614
     51   S     158            25.5900000    0.239871618922
     51   S     159             8.9970000    0.443751820060
     51   S     160             3.3190000    0.353579696469
     51   S     161             0.3643000   -0.009176366076

     52   S     162          8236.0000000   -0.000196392234
     52   S     163          1235.0000000   -0.001525950274
     52   S     164           280.8000000   -0.007890449028
     52   S     165            79.2700000   -0.031514870532
     52   S     166            25.5900000   -0.096910008320
     52   S     167             8.9970000   -0.220541526288
     52   S     168             3.3190000   -0.296069112937
     52   S     169             0.3643000    1.040503432950

     53   S     170             0.9059000    1.000000000000

     54   S     171             0.1285000    1.000000000000

     55   P     172            18.7100000    0.039426387165
     55   P     173             4.1330000    0.244088984924
     55   P     174             1.2000000    0.815492008943

     56   P     175             0.3827000    1.000000000000

     57   P     176             0.1209000    1.000000000000

     58   D     177             1.0970000    1.000000000000

     59   D     178             0.3180000    1.000000000000

     60   F     179             0.7610000    1.000000000000

 H         

     61   S     180            33.8700000    0.025494863235
     61   S     181             5.0950000    0.190362765893
     61   S     182             1.1590000    0.852162022245

     62   S     183             0.3258000    1.000000000000

     63   S     184             0.1027000    1.000000000000

     64   P     185             1.4070000    1.000000000000

     65   P     186             0.3880000    1.000000000000

     66   D     187             1.0570000    1.000000000000

 H         

     67   S     188            33.8700000    0.025494863235
     67   S     189             5.0950000    0.190362765893
     67   S     190             1.1590000    0.852162022245

     68   S     191             0.3258000    1.000000000000

     69   S     192             0.1027000    1.000000000000

     70   P     193             1.4070000    1.000000000000

     71   P     194             0.3880000    1.000000000000

     72   D     195             1.0570000    1.000000000000

 H         

     73   S     196            33.8700000    0.025494863235
     73   S     197             5.0950000    0.190362765893
     73   S     198             1.1590000    0.852162022245

     74   S     199             0.3258000    1.000000000000

     75   S     200             0.1027000    1.000000000000

     76   P     201             1.4070000    1.000000000000

     77   P     202             0.3880000    1.000000000000

     78   D     203             1.0570000    1.000000000000

 H         

     79   S     204            33.8700000    0.025494863235
     79   S     205             5.0950000    0.190362765893
     79   S     206             1.1590000    0.852162022245

     80   S     207             0.3258000    1.000000000000

     81   S     208             0.1027000    1.000000000000

     82   P     209             1.4070000    1.000000000000

     83   P     210             0.3880000    1.000000000000

     84   D     211             1.0570000    1.000000000000

 H         

     85   S     212            33.8700000    0.025494863235
     85   S     213             5.0950000    0.190362765893
     85   S     214             1.1590000    0.852162022245

     86   S     215             0.3258000    1.000000000000

     87   S     216             0.1027000    1.000000000000

     88   P     217             1.4070000    1.000000000000

     89   P     218             0.3880000    1.000000000000

     90   D     219             1.0570000    1.000000000000

 H         

     91   S     220            33.8700000    0.025494863235
     91   S     221             5.0950000    0.190362765893
     91   S     222             1.1590000    0.852162022245

     92   S     223             0.3258000    1.000000000000

     93   S     224             0.1027000    1.000000000000

     94   P     225             1.4070000    1.000000000000

     95   P     226             0.3880000    1.000000000000

     96   D     227             1.0570000    1.000000000000

 H         

     97   S     228            33.8700000    0.025494863235
     97   S     229             5.0950000    0.190362765893
     97   S     230             1.1590000    0.852162022245

     98   S     231             0.3258000    1.000000000000

     99   S     232             0.1027000    1.000000000000

    100   P     233             1.4070000    1.000000000000

    101   P     234             0.3880000    1.000000000000

    102   D     235             1.0570000    1.000000000000

 H         

    103   S     236            33.8700000    0.025494863235
    103   S     237             5.0950000    0.190362765893
    103   S     238             1.1590000    0.852162022245

    104   S     239             0.3258000    1.000000000000

    105   S     240             0.1027000    1.000000000000

    106   P     241             1.4070000    1.000000000000

    107   P     242             0.3880000    1.000000000000

    108   D     243             1.0570000    1.000000000000

 H         

    109   S     244            33.8700000    0.025494863235
    109   S     245             5.0950000    0.190362765893
    109   S     246             1.1590000    0.852162022245

    110   S     247             0.3258000    1.000000000000

    111   S     248             0.1027000    1.000000000000

    112   P     249             1.4070000    1.000000000000

    113   P     250             0.3880000    1.000000000000

    114   D     251             1.0570000    1.000000000000

 TOTAL NUMBER OF BASIS SET SHELLS             =  114
 NUMBER OF CARTESIAN GAUSSIAN BASIS FUNCTIONS =  354
 NOTE: THIS RUN WILL RESTRICT THE MO VARIATION SPACE TO SPHERICAL HARMONICS.
 THE NUMBER OF ORBITALS KEPT IN THE VARIATIONAL SPACE WILL BE PRINTED LATER.
 NUMBER OF ELECTRONS                          =  104
 CHARGE OF MOLECULE                           =    3
 SPIN MULTIPLICITY                            =    1
 NUMBER OF OCCUPIED ORBITALS (ALPHA)          =   52
 NUMBER OF OCCUPIED ORBITALS (BETA )          =   52
 TOTAL NUMBER OF ATOMS                        =   15
 THE NUCLEAR REPULSION ENERGY IS      672.0629933867
 NOTE THIS RUN IS USING CORE POTENTIALS, AND THE NUMBER OF ELECTRONS,
 OCCUPIED ORBITALS, AND NUCLEAR REPULSION ENERGY WILL BE ADJUSTED BELOW
 AFTER REMOVAL OF THE CORE CHARGES.

     $CONTRL OPTIONS
     ---------------
 SCFTYP=RHF          RUNTYP=OPTIMIZE     EXETYP=RUN     
 MPLEVL=       2     CITYP =NONE         CCTYP =NONE         VBTYP =NONE    
 DFTTYP=NONE         TDDFT =NONE    
 MULT  =       1     ICHARG=       3     NZVAR =      39     COORD =UNIQUE  
 PP    =READ         RELWFN=NONE         LOCAL =NONE         NUMGRD=       F
 ISPHER=       1     NOSYM =       0     MAXIT =     200     UNITS =ANGS    
 PLTORB=       F     MOLPLT=       F     AIMPAC=       F     FRIEND=        
 NPRINT=       7     IREST =       0     GEOM  =INPUT   
 NORMF =       0     NORMP =       0     ITOL  =      20     ICUT  =      11
 INTTYP=BEST         GRDTYP=BEST         QMTTOL= 1.0E-06

     $SYSTEM OPTIONS
     ---------------
  REPLICATED MEMORY=   300000000 WORDS (ON EVERY NODE).
 DISTRIBUTED MEMDDI=         300 MILLION WORDS IN AGGREGATE,
 MEMDDI DISTRIBUTED OVER  16 PROCESSORS IS    18750000 WORDS/PROCESSOR.
 TOTAL MEMORY REQUESTED ON EACH PROCESSOR=   318750000 WORDS.
 TIMLIM=      525600.00 MINUTES, OR     365.0 DAYS.
 PARALL= T  BALTYP=  DLB     KDIAG=    0  COREFL= F
 MXSEQ2=     300 MXSEQ3=     150  mem10=         0

          --------------
          ECP POTENTIALS
          --------------

 PARAMETERS FOR "LA-ECP  " ON ATOM    1 WITH ZCORE  46 AND LMAX  4 ARE
 FOR L= 4      COEFF    N           ZETA
    1       -2.85665    1        1.42345
 FOR L= 0      COEFF    N           ZETA
    1        8.85347    0       22.29739
    2      -68.41778    2        1.64320
    3      110.12463    2        1.85122
 FOR L= 1      COEFF    N           ZETA
    1        2.98675    0        1.77635
    2      -35.51815    2        3.98941
    3       53.65423    2        2.47524
 FOR L= 2      COEFF    N           ZETA
    1        1.67298    0        1.52169
    2       18.46625    2        1.52182
 FOR L= 3      COEFF    N           ZETA
    1       -4.64430    1        2.67762
    2      -14.43101    1       10.06608

 THE ECP RUN REMOVES   46 CORE ELECTRONS, AND THE SAME NUMBER OF PROTONS.
 NUMBER OF ELECTRONS KEPT IN THE CALCULATION IS =   58
 NUMBER OF OCCUPIED ORBITALS (ALPHA) KEPT IS    =   29
 NUMBER OF OCCUPIED ORBITALS (BETA ) KEPT IS    =   29
 THE ADJUSTED NUCLEAR REPULSION ENERGY=      336.6510214644
          ECP ANGULAR INTS.........     0.02 SECONDS

          ----------------
          PROPERTIES INPUT
          ----------------

     MOMENTS            FIELD           POTENTIAL          DENSITY
 IEMOM =       1   IEFLD =       0   IEPOT =       0   IEDEN =       0
 WHERE =COMASS     WHERE =NUCLEI     WHERE =NUCLEI     WHERE =NUCLEI  
 OUTPUT=BOTH       OUTPUT=BOTH       OUTPUT=BOTH       OUTPUT=BOTH    
 IEMINT=       0   IEFINT=       0                     IEDINT=       0
                                                       MORB  =       0
          EXTRAPOLATION IN EFFECT
          SOSCF IN EFFECT
 ORBITAL PRINTING OPTION: NPREO=     1   354     2     1

     -------------------------------
     INTEGRAL TRANSFORMATION OPTIONS
     -------------------------------
     NWORD  =            0
     CUTOFF = 1.0E-09     MPTRAN =       0
     DIRTRF =       T     AOINTS =DUP     

          ----------------------
          INTEGRAL INPUT OPTIONS
          ----------------------
 NOPK  =       1 NORDER=       0 SCHWRZ=       T

          -----------------------
          MP2 CONTROL INFORMATION
          -----------------------
          NACORE =       13  NBCORE =       13
          LMOMP2 =        F  AOINTS = DUP     
          METHOD =        2  NWORD  =               0
          MP2PRP =        F  OSPT   = NONE    
          CUTOFF = 1.00E-09  CPHFBS = BASISAO 
          CODE   = DDI     

          NUMBER OF CORE -A-  ORBITALS =    13
          NUMBER OF CORE -B-  ORBITALS =    13
          NUMBER OF OCC. -A-  ORBITALS =    29
          NUMBER OF OCC. -B-  ORBITALS =    29
          NUMBER OF MOLECULAR ORBITALS =   354
          NUMBER OF   BASIS  FUNCTIONS =   354

 
 
 -----------------------------------------------
  STATISTICS ON AUTOMATIC COORDINATE GENERATION 
 -----------------------------------------------
  NUMBER OF USER SPECIFIED BONDS                              0
  NUMBER OF BONDS                                            14
  NUMBER OF ANGLES                                           25
  NUMBER OF TORSIONS                                         30
  NUMBER OF EXTRA COORD.                                      0
  NUMBER OF EXTRA COORD. FOR CONSTRAINTS                      0
  NUMBER OF CONSTRAINED COORD.                                1
 
  TOTAL NUMBER OF PRIMITIVES                                 69
 -----------------------------------------------

   --- ENCODED Z MATRIX ---
 COORD  TYPE   I   J   K   L   M   N
    1      2    1   3   2
    2      1    1   3
    3      1    2   4
    4      1    2   3
    5      1    2   6
    6      1    2   5
    7      1    4   8
    8      1    4   7
    9      1    4   9
   10      1    5  12
   11      1    5  11
   12      1    5  10
   13      1    6  15
   14      1    6  14
   15      1    6  13
   16      2    2   5  11
   17      2    2   4   8
   18      2    2   6  13
   19      2    2   6  14
   20      2    2   4   9
   21      2    2   5  12
   22      2    2   5  10
   23      2    2   4   7
   24      2    2   6  15
   25      2    3   2   4
   26      2    3   2   5
   27      2    3   2   6
   28      2    4   2   6
   29      2    4   2   5
   30      2    5   2   6
   31      2    7   4   9
   32      2    7   4   8
   33      2    8   4   9
   34      2   10   5  11
   35      2   10   5  12
   36      2   11   5  12
   37      2   13   6  14
   38      2   13   6  15
   39      2   14   6  15
   40      3    1   3   2   5
   41      3    1   3   2   4
   42      3    1   3   2   6
   43      3    3   2   4   8
   44      3    3   2   6  15
   45      3    3   2   6  14
   46      3    3   2   4   7
   47      3    3   2   5  10
   48      3    3   2   6  13
   49      3    3   2   5  11
   50      3    3   2   5  12
   51      3    3   2   4   9
   52      3    4   2   6  15
   53      3    4   2   6  14
   54      3    4   2   5  10
   55      3    4   2   6  13
   56      3    4   2   5  12
   57      3    4   2   5  11
   58      3    5   2   6  15
   59      3    5   2   6  14
   60      3    5   2   4   7
   61      3    5   2   6  13
   62      3    5   2   4   9
   63      3    5   2   4   8
   64      3    6   2   4   7
   65      3    6   2   5  10
   66      3    6   2   5  11
   67      3    6   2   5  12
   68      3    6   2   4   9
   69      3    6   2   4   8

          INDEP./SYM. INTERNAL COORDINATES
          --------------------------------
 CRD  1=   1.0000 (  1)
 CRD  2=   0.1030 ( 16) -0.1298 ( 20) -0.1056 ( 22)  0.1262 ( 23) -0.1109 ( 24)
          -0.2936 ( 26)  0.3163 ( 27) -0.4179 ( 28)  0.4503 ( 29) -0.1917 ( 40)
           0.1695 ( 41) -0.1658 ( 42)  0.1122 ( 46)  0.1080 ( 51) -0.1378 ( 53)
          -0.1242 ( 56)  0.1623 ( 58)  0.1581 ( 61)  0.1504 ( 65)  0.1641 ( 66)
 CRD  3=  -0.3105 (  3)  0.1477 (  5)  0.1832 (  6)  0.2284 ( 18) -0.1433 ( 19)
          -0.1213 ( 21)  0.2237 ( 22) -0.2497 ( 28) -0.2012 ( 29)  0.4233 ( 30)
           0.2349 ( 40) -0.2531 ( 42)  0.1662 ( 44) -0.1542 ( 49) -0.1366 ( 59)
          -0.1005 ( 60) -0.1280 ( 61) -0.1011 ( 63)  0.1360 ( 65)  0.1445 ( 67)
           0.1102 ( 68)
 CRD  4=  -0.3539 (  5)  0.3285 (  6) -0.1873 ( 19) -0.1567 ( 20)  0.1941 ( 21)
           0.1766 ( 23)  0.2196 ( 26) -0.2367 ( 27) -0.1023 ( 28)  0.1102 ( 29)
          -0.1061 ( 35)  0.1143 ( 37)  0.2781 ( 41) -0.2621 ( 43)  0.1099 ( 44)
           0.1192 ( 45) -0.1985 ( 46)  0.1388 ( 49)  0.1395 ( 50) -0.1945 ( 51)
          -0.1228 ( 54) -0.1122 ( 55)  0.1343 ( 60)  0.1383 ( 62)  0.1301 ( 64)
           0.1341 ( 68)
 CRD  5=  -0.3779 (  3) -0.4110 (  5) -0.4135 (  6) -0.2717 ( 16) -0.2708 ( 17)
          -0.2717 ( 24)  0.1143 ( 32)  0.1142 ( 33)  0.1237 ( 34)  0.1224 ( 36)
           0.1231 ( 38)  0.1217 ( 39) -0.1215 ( 54)  0.1221 ( 55) -0.1111 ( 59)
           0.1196 ( 62) -0.1204 ( 64)  0.1112 ( 67)
 CRD  6=   0.2129 (  2)  0.3788 (  3)  0.3467 (  4)  0.1634 (  5)  0.1467 (  6)
          -0.1994 ( 16) -0.2162 ( 17)  0.1715 ( 18)  0.1510 ( 19)  0.2593 ( 20)
           0.1441 ( 21)  0.1631 ( 22)  0.2608 ( 23) -0.2006 ( 24)  0.1493 ( 25)
          -0.2071 ( 31) -0.1181 ( 35) -0.1245 ( 37)  0.1165 ( 52) -0.1516 ( 54)
           0.1542 ( 55) -0.1153 ( 57)  0.1212 ( 62) -0.1261 ( 64)
 CRD  7=  -0.1541 (  2) -0.3290 (  3) -0.2003 (  4)  0.2298 (  5)  0.2731 (  6)
           0.1027 ( 14) -0.2594 ( 17) -0.1374 ( 18)  0.4333 ( 19)  0.4265 ( 21)
          -0.1033 ( 22)  0.1459 ( 32)  0.1320 ( 33) -0.1501 ( 35) -0.1381 ( 36)
          -0.1366 ( 37) -0.1315 ( 39)
 CRD  8=  -0.2826 (  5)  0.2623 (  6) -0.1070 (  8)  0.1061 (  9)  0.2939 ( 16)
          -0.1494 ( 18)  0.1920 ( 19)  0.4045 ( 20) -0.2351 ( 21)  0.1956 ( 22)
          -0.4076 ( 23) -0.3167 ( 24)  0.1325 ( 32) -0.1511 ( 33) -0.1960 ( 34)
           0.1897 ( 38)
 CRD  9=   0.1721 (  2)  0.2454 (  4)  0.3817 ( 16) -0.3373 ( 17) -0.3488 ( 18)
           0.1399 ( 20) -0.3576 ( 22)  0.1129 ( 23)  0.3300 ( 24)  0.1209 ( 25)
           0.1488 ( 35) -0.1378 ( 36)  0.1325 ( 37) -0.1321 ( 39)  0.1342 ( 53)
          -0.1370 ( 56)
 CRD 10=  -0.1033 (  8)  0.1047 (  9) -0.1008 ( 14)  0.3140 ( 18) -0.4010 ( 19)
           0.3887 ( 20)  0.3957 ( 21) -0.3150 ( 22) -0.3825 ( 23)  0.1377 ( 32)
          -0.1362 ( 33)  0.1342 ( 34) -0.1145 ( 36) -0.1359 ( 38)  0.1146 ( 39)
 CRD 11=  -0.1154 ( 11)  0.1186 ( 12)  0.1243 ( 13) -0.1150 ( 15) -0.4166 ( 16)
          -0.3794 ( 18)  0.1755 ( 20)  0.3869 ( 22) -0.1426 ( 23)  0.4489 ( 24)
          -0.1917 ( 35)  0.1506 ( 36)  0.2065 ( 37) -0.1478 ( 39)
 CRD 12=   0.2267 (  2)  0.3257 (  4)  0.1737 (  7) -0.1023 ( 16)  0.5091 ( 17)
          -0.1948 ( 18)  0.2329 ( 19) -0.2237 ( 20)  0.2375 ( 21) -0.1595 ( 22)
          -0.2544 ( 23)  0.1470 ( 25)  0.1210 ( 30)  0.2290 ( 31) -0.1154 ( 32)
          -0.1276 ( 33)  0.1055 ( 34)  0.1009 ( 38)
 CRD 13=   0.2233 (  2) -0.1618 (  3)  0.4410 (  4)  0.1062 (  6)  0.1179 ( 11)
           0.1066 ( 13)  0.1519 ( 16) -0.1123 ( 20) -0.1001 ( 23)  0.1416 ( 24)
          -0.1633 ( 25)  0.1442 ( 26)  0.1221 ( 27)  0.1054 ( 28) -0.2740 ( 30)
          -0.1397 ( 34) -0.1318 ( 38) -0.1360 ( 52) -0.1415 ( 53) -0.1047 ( 55)
           0.1419 ( 56)  0.1322 ( 57) -0.1711 ( 58) -0.1766 ( 59)  0.1451 ( 60)
          -0.1398 ( 61)  0.1215 ( 63)  0.1191 ( 65)  0.1528 ( 66)  0.1626 ( 67)
          -0.1249 ( 68)
 CRD 14=  -0.2391 ( 44) -0.2044 ( 45) -0.2298 ( 47) -0.2196 ( 48) -0.2503 ( 49)
          -0.2157 ( 50) -0.2259 ( 52) -0.1912 ( 53) -0.2150 ( 54) -0.2065 ( 55)
          -0.2008 ( 56) -0.2354 ( 57) -0.2361 ( 58) -0.2014 ( 59) -0.2166 ( 61)
          -0.1130 ( 63) -0.2244 ( 65) -0.2449 ( 66) -0.2103 ( 67) -0.1123 ( 69)
 CRD 15=  -0.1770 ( 10)  0.1841 ( 14) -0.1029 ( 40) -0.1687 ( 41) -0.1077 ( 42)
           0.3361 ( 43)  0.3088 ( 46)  0.3116 ( 51)  0.2599 ( 60)  0.2627 ( 62)
           0.2872 ( 63)  0.2617 ( 64)  0.2645 ( 68)  0.2890 ( 69)
 CRD 16=  -0.4219 (  7) -0.3496 (  8) -0.3432 (  9)  0.2498 ( 10)  0.2424 ( 11)
           0.1657 ( 12)  0.1953 ( 13)  0.2137 ( 14)  0.1232 ( 15)  0.1262 ( 17)
          -0.1163 ( 18)  0.1738 ( 20) -0.1328 ( 22)  0.1686 ( 23) -0.2006 ( 31)
          -0.1353 ( 32) -0.1381 ( 33)  0.1016 ( 34)  0.1142 ( 35)
 CRD 17=   0.2578 ( 10)  0.3586 ( 11)  0.3198 ( 12) -0.3859 ( 13) -0.2858 ( 14)
          -0.3358 ( 15) -0.1068 ( 16)  0.1361 ( 18)  0.1721 ( 19) -0.1656 ( 21)
          -0.1207 ( 22)  0.1149 ( 24)  0.1024 ( 34)  0.1681 ( 35)  0.1271 ( 36)
          -0.1809 ( 37) -0.1136 ( 38) -0.1334 ( 39)  0.1003 ( 62)
 CRD 18=  -0.1064 (  3) -0.2756 (  7) -0.3239 (  8) -0.3243 (  9) -0.2938 ( 10)
          -0.2591 ( 11) -0.2885 ( 12) -0.2603 ( 13) -0.2964 ( 14) -0.2906 ( 15)
           0.1091 ( 16)  0.1204 ( 17)  0.1069 ( 20)  0.1069 ( 23)  0.1099 ( 24)
          -0.1134 ( 31) -0.1125 ( 32) -0.1125 ( 33) -0.1019 ( 34) -0.1050 ( 35)
          -0.1023 ( 36) -0.1056 ( 37) -0.1026 ( 38) -0.1030 ( 39)
 CRD 19=   0.1809 (  3) -0.1753 (  4) -0.1070 (  5) -0.1293 (  6) -0.1088 (  7)
           0.2341 (  8)  0.2538 (  9) -0.2620 ( 12) -0.2446 ( 15)  0.1091 ( 25)
           0.2104 ( 30) -0.1989 ( 44) -0.1848 ( 45)  0.1930 ( 47) -0.2058 ( 48)
           0.1846 ( 49)  0.1694 ( 50) -0.1615 ( 52) -0.1473 ( 53)  0.1529 ( 54)
          -0.1684 ( 55)  0.1294 ( 56)  0.1445 ( 57) -0.1521 ( 58) -0.1380 ( 59)
          -0.1590 ( 61)  0.1549 ( 65)  0.1465 ( 66)  0.1314 ( 67)
 CRD 20=   0.1107 (  8) -0.1411 (  9)  0.4114 ( 11) -0.3172 ( 12) -0.4436 ( 13)
           0.1124 ( 14)  0.3153 ( 15) -0.2061 ( 35)  0.1736 ( 36)  0.2223 ( 37)
          -0.1721 ( 39) -0.1324 ( 45)  0.1097 ( 48) -0.1251 ( 50) -0.1359 ( 53)
           0.1063 ( 55) -0.1276 ( 56) -0.1243 ( 59)  0.1178 ( 61)  0.1078 ( 65)
          -0.1168 ( 67)
 CRD 21=  -0.3773 (  7)  0.1757 (  8)  0.1472 (  9) -0.3296 ( 10)  0.3414 ( 11)
           0.2899 ( 13) -0.3214 ( 14)  0.1988 ( 31) -0.1041 ( 33)  0.1759 ( 34)
          -0.1701 ( 35) -0.1437 ( 37)  0.1700 ( 38) -0.1022 ( 46)  0.1003 ( 47)
           0.1038 ( 51)  0.1002 ( 52)  0.1002 ( 58) -0.1043 ( 60)  0.1017 ( 62)
          -0.1006 ( 64)  0.1055 ( 68)
 CRD 22=  -0.4632 (  7)  0.2078 (  8)  0.1997 (  9) -0.3220 ( 11)  0.2023 ( 12)
          -0.3316 ( 13)  0.2096 ( 15)  0.2366 ( 31) -0.1156 ( 32) -0.1195 ( 33)
           0.1623 ( 35) -0.1090 ( 36)  0.1674 ( 37) -0.1131 ( 39) -0.1260 ( 46)
           0.1263 ( 51) -0.1019 ( 54)  0.1043 ( 55) -0.1097 ( 59) -0.1092 ( 60)
           0.1430 ( 62) -0.1426 ( 64)  0.1069 ( 67)  0.1097 ( 68)
 CRD 23=  -0.3681 (  8)  0.3693 (  9)  0.2942 ( 10) -0.2812 ( 12) -0.3008 ( 14)
           0.2866 ( 15) -0.1955 ( 32)  0.1944 ( 33) -0.1627 ( 34)  0.1502 ( 36)
           0.1661 ( 38) -0.1525 ( 39)  0.1471 ( 43)  0.1119 ( 44)  0.1091 ( 49)
           0.1119 ( 52)  0.1091 ( 57)  0.1122 ( 58)  0.1469 ( 63)  0.1094 ( 66)
           0.1469 ( 69)
 CRD 24=  -0.3895 (  8)  0.3776 (  9) -0.3279 ( 10)  0.1434 ( 11)  0.1742 ( 12)
          -0.1545 ( 13)  0.2882 ( 14) -0.1226 ( 15) -0.2103 ( 32)  0.2175 ( 33)
           0.1878 ( 34) -0.1658 ( 38)  0.1256 ( 43) -0.1003 ( 46)  0.1129 ( 47)
           0.1044 ( 48) -0.1077 ( 51)  0.1244 ( 54)  0.1147 ( 55) -0.1136 ( 60)
           0.1056 ( 61) -0.1210 ( 62)  0.1123 ( 63) -0.1130 ( 64)  0.1160 ( 65)
          -0.1203 ( 68)  0.1130 ( 69)
 CRD 25=   0.2434 (  7) -0.1079 (  9) -0.2589 ( 10) -0.1307 ( 11)  0.3378 ( 12)
          -0.1038 ( 13) -0.2910 ( 14)  0.3520 ( 15) -0.1601 ( 31)  0.1592 ( 34)
          -0.2182 ( 36)  0.1811 ( 38) -0.2256 ( 39) -0.1474 ( 45)  0.1470 ( 50)
          -0.1599 ( 53) -0.1042 ( 55)  0.1569 ( 56) -0.1618 ( 59) -0.1060 ( 61)
           0.1094 ( 64)  0.1622 ( 67)
 CRD 26=   0.2425 (  5) -0.2251 (  6) -0.1602 (  8)  0.1301 (  9) -0.2638 ( 10)
          -0.1004 ( 11) -0.1240 ( 12)  0.1082 ( 13)  0.2634 ( 14)  0.1545 ( 15)
           0.1986 ( 19)  0.1240 ( 20) -0.2036 ( 21) -0.1440 ( 23) -0.1542 ( 28)
           0.1661 ( 29)  0.1362 ( 32) -0.1238 ( 33)  0.1722 ( 35)  0.1270 ( 36)
          -0.1855 ( 37) -0.1205 ( 39)  0.1125 ( 40)  0.3443 ( 41)  0.1292 ( 42)
          -0.1187 ( 43) -0.1226 ( 54) -0.1123 ( 55)  0.1405 ( 60)  0.1431 ( 62)
           0.1342 ( 64)  0.1368 ( 68)
 CRD 27=  -0.6960 (  2)  0.1038 (  4)  0.2112 (  7)  0.1090 (  8)  0.1171 (  9)
           0.1128 ( 11) -0.1298 ( 12)  0.1199 ( 13) -0.1202 ( 15)  0.1809 ( 17)
           0.1065 ( 20)  0.1036 ( 26) -0.1566 ( 32) -0.1632 ( 33)  0.1191 ( 35)
           0.1052 ( 37) -0.1684 ( 59)  0.1673 ( 67)
 CRD 28=  -0.2978 (  2)  0.1033 (  3) -0.1882 (  8) -0.1979 (  9)  0.1637 ( 11)
           0.1815 ( 12)  0.1507 ( 13)  0.1639 ( 15)  0.1697 ( 16) -0.1234 ( 17)
           0.1406 ( 18) -0.1455 ( 20)  0.1557 ( 22) -0.1390 ( 23)  0.1486 ( 24)
           0.2758 ( 25) -0.1125 ( 26)  0.2263 ( 31) -0.2008 ( 34) -0.1054 ( 35)
          -0.1876 ( 38) -0.2172 ( 44) -0.1914 ( 45)  0.1459 ( 47) -0.1565 ( 48)
           0.2016 ( 49)  0.1769 ( 50)
 CRD 29=   0.3665 (  2) -0.2775 (  3) -0.3374 (  4) -0.2036 (  5) -0.1979 (  6)
           0.2030 (  7)  0.1427 (  8)  0.1433 (  9)  0.1678 ( 11)  0.1703 ( 13)
           0.1030 ( 14)  0.1386 ( 16)  0.1893 ( 17)  0.1203 ( 18)  0.1228 ( 19)
           0.1626 ( 20)  0.1195 ( 21)  0.1172 ( 22)  0.1624 ( 23)  0.1423 ( 24)
          -0.1450 ( 31) -0.1887 ( 32) -0.1892 ( 33) -0.1418 ( 34) -0.1489 ( 36)
          -0.1446 ( 38) -0.1523 ( 39)
 CRD 30=  -0.4417 (  5)  0.4098 (  6) -0.1409 ( 10) -0.1554 ( 11) -0.1523 ( 12)
           0.1674 ( 13)  0.1583 ( 14)  0.1577 ( 15) -0.1652 ( 16)  0.1922 ( 18)
           0.1596 ( 19) -0.1450 ( 21) -0.1815 ( 22)  0.1780 ( 24)  0.1688 ( 34)
           0.1658 ( 35)  0.1640 ( 36) -0.1787 ( 37) -0.1771 ( 38) -0.1815 ( 39)
          -0.1672 ( 40) -0.1988 ( 41) -0.1695 ( 42)
 CRD 31=   0.2748 (  2)  0.1714 (  3) -0.4857 (  4)  0.2391 (  5)  0.2444 (  6)
           0.1377 (  7) -0.1369 (  8) -0.1380 (  9) -0.1641 ( 10)  0.1114 ( 11)
          -0.1497 ( 12)  0.1133 ( 13) -0.1632 ( 14) -0.1477 ( 15)  0.2011 ( 31)
           0.2236 ( 35)  0.2220 ( 37) -0.1358 ( 54)  0.1364 ( 55) -0.1261 ( 59)
           0.1342 ( 62) -0.1350 ( 64)  0.1262 ( 67)
 CRD 32=   0.4811 (  3) -0.2010 (  5) -0.2539 (  6) -0.1663 (  7)  0.1919 ( 10)
           0.1069 ( 11) -0.1266 ( 12)  0.1964 ( 14) -0.1468 ( 15) -0.1313 ( 20)
          -0.1325 ( 23) -0.1800 ( 25)  0.1046 ( 26)  0.1521 ( 32)  0.1330 ( 33)
          -0.2068 ( 36) -0.2002 ( 39)  0.2451 ( 44) -0.1142 ( 47)  0.1155 ( 48)
          -0.2275 ( 49)
 CRD 33=  -0.2797 ( 10)  0.2775 ( 12)  0.2630 ( 14) -0.2606 ( 15) -0.1157 ( 19)
           0.1192 ( 21) -0.2368 ( 34)  0.1879 ( 36)  0.2259 ( 38) -0.1733 ( 39)
          -0.1293 ( 40) -0.1398 ( 41) -0.1300 ( 42)  0.2006 ( 44) -0.1004 ( 46)
          -0.1082 ( 47) -0.1099 ( 48)  0.2189 ( 49)  0.1904 ( 52) -0.1236 ( 54)
          -0.1201 ( 55)  0.2036 ( 57)  0.1743 ( 58) -0.1020 ( 59) -0.1362 ( 61)
          -0.1385 ( 65)  0.1887 ( 66) -0.1067 ( 67)
 CRD 34=  -0.3481 (  8)  0.3551 (  9) -0.1050 ( 11)  0.1132 ( 13) -0.1550 ( 20)
           0.1518 ( 23)  0.1147 ( 28) -0.1237 ( 29)  0.2685 ( 32) -0.2615 ( 33)
          -0.1043 ( 40) -0.2239 ( 41) -0.1129 ( 42) -0.2566 ( 43)  0.1503 ( 46)
           0.1404 ( 51)  0.1121 ( 55)  0.1392 ( 60)  0.1293 ( 62) -0.2676 ( 63)
           0.1439 ( 64)  0.1340 ( 68) -0.2629 ( 69)
 CRD 35=  -0.3213 (  7)  0.1498 (  8)  0.1310 (  9) -0.1990 ( 10)  0.1791 ( 11)
           0.1431 ( 13) -0.1926 ( 14)  0.1132 ( 17)  0.1101 ( 30) -0.2282 ( 31)
           0.1278 ( 32)  0.1420 ( 33) -0.1663 ( 34)  0.1270 ( 35)  0.1014 ( 37)
          -0.1582 ( 38)  0.1890 ( 46) -0.1945 ( 47)  0.1792 ( 48) -0.2023 ( 51)
          -0.2129 ( 54)  0.1944 ( 55)  0.1600 ( 60)  0.1681 ( 61) -0.2313 ( 62)
           0.2177 ( 64) -0.1800 ( 65) -0.1736 ( 68)
 CRD 36=  -0.1218 (  8)  0.1023 (  9)  0.2713 ( 11) -0.1555 ( 12) -0.2924 ( 13)
           0.1712 ( 15) -0.1044 ( 16)  0.1125 ( 24)  0.2028 ( 35) -0.1333 ( 36)
          -0.2185 ( 37)  0.1462 ( 39) -0.1379 ( 40) -0.1482 ( 41) -0.1386 ( 42)
          -0.1124 ( 43)  0.2173 ( 45) -0.1310 ( 47) -0.1459 ( 48)  0.2060 ( 50)
           0.2365 ( 53) -0.1059 ( 54) -0.1267 ( 55)  0.2312 ( 56)  0.2433 ( 59)
          -0.1199 ( 61) -0.1630 ( 63)  0.2374 ( 67) -0.1635 ( 69)
 CRD 37=  -0.2539 (  3)  0.1115 (  5)  0.1399 (  6) -0.1186 (  7)  0.1180 ( 10)
          -0.2121 ( 12)  0.1404 ( 14) -0.2153 ( 15)  0.1355 ( 18) -0.1357 ( 19)
          -0.1257 ( 21)  0.1259 ( 22)  0.1852 ( 25) -0.1042 ( 26) -0.1132 ( 30)
          -0.1358 ( 31)  0.1038 ( 34) -0.1384 ( 36)  0.1168 ( 38) -0.1442 ( 39)
          -0.1091 ( 40)  0.1176 ( 42) -0.2398 ( 45)  0.1047 ( 46)  0.1373 ( 47)
          -0.1618 ( 48)  0.2354 ( 50)  0.2361 ( 52) -0.2147 ( 57)  0.2650 ( 58)
           0.1178 ( 60) -0.2503 ( 66) -0.1207 ( 68)
 CRD 38=  -0.2527 (  4) -0.1603 (  7) -0.1607 ( 11) -0.1607 ( 13)  0.1238 ( 16)
           0.1230 ( 17)  0.1238 ( 24)  0.1068 ( 25)  0.1053 ( 26)  0.1055 ( 27)
          -0.1082 ( 31) -0.1082 ( 35) -0.1083 ( 37)  0.1198 ( 45)  0.1195 ( 46)
           0.1196 ( 47) -0.1197 ( 48) -0.1199 ( 50) -0.1193 ( 51)  0.1425 ( 52)
           0.2623 ( 53) -0.2623 ( 56) -0.1425 ( 57) -0.1421 ( 58)  0.2610 ( 60)
          -0.2618 ( 61)  0.1415 ( 63)  0.2619 ( 65)  0.1422 ( 66) -0.2610 ( 68)
          -0.1417 ( 69)
 CRD 39=  -0.2289 (  5)  0.2124 (  6) -0.1017 ( 10) -0.1364 ( 26)  0.1469 ( 27)
           0.1079 ( 28) -0.1162 ( 29)  0.4820 ( 40)  0.2724 ( 41)  0.4669 ( 42)
           0.1060 ( 43)  0.1918 ( 46) -0.1584 ( 47) -0.1373 ( 48) -0.1008 ( 50)
           0.1963 ( 51)  0.1124 ( 52)  0.1263 ( 57) -0.1260 ( 63) -0.1214 ( 69)

 THE DETERMINANT OF THE G MATRIX IS 10**(   -19)


                     --------------------
                     INTERNAL COORDINATES
                     --------------------

                 - - ATOMS - -         COORDINATE      COORDINATE
 NO.   TYPE    I  J  K  L  M  N        (BOHR,RAD)       (ANG,DEG)
 ----------------------------------------------------------------
   1 BEND      1  3  2                  2.6529005     152.0000000
   2 STRETCH   1  3                     3.9655853       2.0984975
   3 STRETCH   2  4                     3.3484320       1.7719140
   4 STRETCH   2  3                     3.2154201       1.7015272
   5 STRETCH   2  6                     3.3484566       1.7719271
   6 STRETCH   2  5                     3.3484461       1.7719215
   7 STRETCH   4  8                     2.0698887       1.0953380
   8 STRETCH   4  7                     2.0585963       1.0893623
   9 STRETCH   4  9                     2.0585769       1.0893521
  10 STRETCH   5 12                     2.0585887       1.0893583
  11 STRETCH   5 11                     2.0699049       1.0953466
  12 STRETCH   5 10                     2.0585850       1.0893563
  13 STRETCH   6 15                     2.0699113       1.0953500
  14 STRETCH   6 14                     2.0585734       1.0893502
  15 STRETCH   6 13                     2.0585905       1.0893593
  16 BEND      2  5 11                  1.8617257     106.6690242
  17 BEND      2  4  8                  1.8617503     106.6704366
  18 BEND      2  6 13                  1.9422064     111.2802298
  19 BEND      2  6 14                  1.9421731     111.2783195
  20 BEND      2  4  9                  1.9421657     111.2778965
  21 BEND      2  5 12                  1.9421929     111.2794586
  22 BEND      2  5 10                  1.9422210     111.2810643
  23 BEND      2  4  7                  1.9421835     111.2789153
  24 BEND      2  6 15                  1.8617547     106.6706876
  25 BEND      3  2  4                  1.8566295     106.3770343
  26 BEND      3  2  5                  1.8564257     106.3653596
  27 BEND      3  2  6                  1.8563668     106.3619840
  28 BEND      4  2  6                  1.9615455     112.3882757
  29 BEND      4  2  5                  1.9615420     112.3880789
  30 BEND      5  2  6                  1.9615340     112.3876199
  31 BEND      7  4  9                  1.9411093     111.2173696
  32 BEND      7  4  8                  1.8865465     108.0911531
  33 BEND      8  4  9                  1.8865760     108.0928403
  34 BEND     10  5 11                  1.8865249     108.0899157
  35 BEND     10  5 12                  1.9411462     111.2194854
  36 BEND     11  5 12                  1.8865127     108.0892176
  37 BEND     13  6 14                  1.9411688     111.2207796
  38 BEND     13  6 15                  1.8864953     108.0882171
  39 BEND     14  6 15                  1.8865259     108.0899695
  40 TORSION   1  3  2  5               0.9826059      56.2991703
  41 TORSION   1  3  2  4               3.0770573     176.3023961
  42 TORSION   1  3  2  6              -1.1117026     -63.6958676
  43 TORSION   3  2  4  8               3.1415018     179.9947971
  44 TORSION   3  2  6 15               3.1414176     179.9899701
  45 TORSION   3  2  6 14              -1.0879358     -62.3341312
  46 TORSION   3  2  4  7              -1.0878237     -62.3277076
  47 TORSION   3  2  5 10              -1.0876530     -62.3179262
  48 TORSION   3  2  6 13               1.0876044      62.3151424
  49 TORSION   3  2  5 11              -3.1414924    -179.9942563
  50 TORSION   3  2  5 12               1.0878833      62.3311241
  51 TORSION   3  2  4  9               1.0876163      62.3158257
  52 TORSION   4  2  6 15              -1.1167595     -63.9856053
  53 TORSION   4  2  6 14               0.9370724      53.6902935
  54 TORSION   4  2  5 10              -3.1126949    -178.3442782
  55 TORSION   4  2  6 13               3.1126126     178.3395670
  56 TORSION   4  2  5 12              -0.9371585     -53.6952280
  57 TORSION   4  2  5 11               1.1166510      63.9793917
  58 TORSION   5  2  6 15               1.1166606      63.9799412
  59 TORSION   5  2  6 14              -3.1126928    -178.3441601
  60 TORSION   5  2  4  7               0.9370955      53.6916197
  61 TORSION   5  2  6 13              -0.9371526     -53.6948865
  62 TORSION   5  2  4  9               3.1125356     178.3351530
  63 TORSION   5  2  4  8              -1.1167642     -63.9858756
  64 TORSION   6  2  4  7              -3.1126739    -178.3430761
  65 TORSION   6  2  5 10               0.9370685      53.6900713
  66 TORSION   6  2  5 11              -1.1167709     -63.9862587
  67 TORSION   6  2  5 12               3.1126049     178.3391216
  68 TORSION   6  2  4  9              -0.9372338     -53.6995428
  69 TORSION   6  2  4  8               1.1166517      63.9794286

     ------------------------------------------
     THE POINT GROUP IS C1 , NAXIS= 0, ORDER= 1
     ------------------------------------------

 -- VARIATIONAL SPACE WILL BE RESTRICTED TO PURE SPHERICAL HARMONICS ONLY --
 AFTER EXCLUDING CONTAMINANT COMBINATIONS FROM THE CARTESIAN GAUSSIAN BASIS
 SET, THE NUMBER OF SPHERICAL HARMONICS KEPT IN THE VARIATION SPACE IS  316

     DIMENSIONS OF THE SYMMETRY SUBSPACES ARE
 A   =  316

 ..... DONE SETTING UP THE RUN .....
 CPU     0: STEP CPU TIME=     0.09 TOTAL CPU TIME=        0.1 (    0.0 MIN)
 TOTAL WALL CLOCK TIME=        0.2 SECONDS, CPU UTILIZATION IS  56.25%


          -----------------------------
          STATIONARY POINT LOCATION RUN
          -----------------------------


           ** GEOMETRY CONSTRAINTS ARE BEING APPLIED. **

          TRANSFORMING DISPLACEMENT FROM INTERNALS TO CARTESIANS
          THE ROOT MEAN SQUARE ERROR IN ITERATION   1 IS   0.00000000
 WARNING! THE RADIUS IN CARTESIANS IS    0.00000
 OBTAINING INITIAL HESSIAN, HESS=GUESS   
 DIAGONAL GUESS HESSIAN IN INTERNAL COORDS IS
     1  0.3179     2  0.5872     3  0.4357     4  0.4035     5  0.4357
     6  0.4357     7  0.3428     8  0.3468     9  0.3468    10  0.3468
    11  0.3428    12  0.3468    13  0.3428    14  0.3468    15  0.3468
    16  0.2410    17  0.2410    18  0.2414    19  0.2414    20  0.2414
    21  0.2414    22  0.2414    23  0.2414    24  0.2410    25  0.2834
    26  0.2834    27  0.2834    28  0.2919    29  0.2919    30  0.2919
    31  0.2035    32  0.2032    33  0.2032    34  0.2032    35  0.2035
    36  0.2032    37  0.2035    38  0.2032    39  0.2032    40  0.2500
    41  0.2500    42  0.2500    43  0.2500    44  0.2500    45  0.2500
    46  0.2500    47  0.2500    48  0.2500    49  0.2500    50  0.2500
    51  0.2500    52  0.2500    53  0.2500    54  0.2500    55  0.2500
    56  0.2500    57  0.2500    58  0.2500    59  0.2500    60  0.2500
    61  0.2500    62  0.2500    63  0.2500    64  0.2500    65  0.2500
    66  0.2500    67  0.2500    68  0.2500    69  0.2500
 TRANSFORMING HESSIAN TO SYMMETRY COORDINATES

          PARAMETERS CONTROLLING GEOMETRY SEARCH ARE
          METHOD =QA                  UPHESS =BFGS    
          NNEG   =         0          NFRZ   =         0
          NSTEP  =        50          IFOLOW =         1
          HESS   =GUESS               RESTAR =         F
          IHREP  =         0          HSSEND =         F
          NPRT   =         0          NPUN   =         0
          OPTTOL = 1.000E-04          RMIN   = 1.500E-03
          RMAX   = 1.000E-01          RLIM   = 7.000E-02
          DXMAX  = 3.000E-01          PURIFY =         F
          MOVIE  =         F          TRUPD  =         T
          TRMAX  = 5.000E-01          TRMIN  = 5.000E-02
          ITBMAT =         5          STPT   =         F
          STSTEP = 1.000E-02          PROJCT=          T

 BEGINNING GEOMETRY SEARCH POINT NSERCH=   0 ...

 COORDINATES OF ALL ATOMS ARE (ANGS)
   ATOM   CHARGE       X              Y              Z
 ------------------------------------------------------------
 LA         57.0   0.3143500000   0.8802800000  -4.0288700000
 P          15.0   0.3002268249   0.1435491485  -0.4148266771
 O           8.0  -0.1001300000   0.6702700000  -1.9824600000
 C           6.0  -0.9977175550   0.7110176118   0.6495977139
 C           6.0   1.8637115517   0.8804163299  -0.0246369252
 C           6.0   0.3873454388  -1.6246632825  -0.4893962369
 H           1.0  -1.0536924672   1.7988960198   0.6594782977
 H           1.0  -0.7447139998   0.3742532420   1.6607081303
 H           1.0  -1.9551348196   0.2694616999   0.3756113949
 H           1.0   2.6419240958   0.5415144026  -0.7074457676
 H           1.0   2.1264219501   0.5443084870   0.9842232982
 H           1.0   1.7962433417   1.9676110849  -0.0121021137
 H           1.0   1.1714292672  -1.9535035108  -1.1704103838
 H           1.0  -0.5756387208  -2.0569069920  -0.7586745448
 H           1.0   0.6451426992  -1.9693232537   0.5178483202


                     --------------------
                     INTERNAL COORDINATES
                     --------------------

                 - - ATOMS - -         COORDINATE      COORDINATE
 NO.   TYPE    I  J  K  L  M  N        (BOHR,RAD)       (ANG,DEG)
 ----------------------------------------------------------------
   1 BEND      1  3  2                  2.6529005     152.0000000
   2 STRETCH   1  3                     3.9655853       2.0984975
   3 STRETCH   2  4                     3.3484320       1.7719140
   4 STRETCH   2  3                     3.2154201       1.7015272
   5 STRETCH   2  6                     3.3484566       1.7719271
   6 STRETCH   2  5                     3.3484461       1.7719215
   7 STRETCH   4  8                     2.0698887       1.0953380
   8 STRETCH   4  7                     2.0585963       1.0893623
   9 STRETCH   4  9                     2.0585769       1.0893521
  10 STRETCH   5 12                     2.0585887       1.0893583
  11 STRETCH   5 11                     2.0699049       1.0953466
  12 STRETCH   5 10                     2.0585850       1.0893563
  13 STRETCH   6 15                     2.0699113       1.0953500
  14 STRETCH   6 14                     2.0585734       1.0893502
  15 STRETCH   6 13                     2.0585905       1.0893593
  16 BEND      2  5 11                  1.8617257     106.6690242
  17 BEND      2  4  8                  1.8617503     106.6704366
  18 BEND      2  6 13                  1.9422064     111.2802298
  19 BEND      2  6 14                  1.9421731     111.2783195
  20 BEND      2  4  9                  1.9421657     111.2778965
  21 BEND      2  5 12                  1.9421929     111.2794586
  22 BEND      2  5 10                  1.9422210     111.2810643
  23 BEND      2  4  7                  1.9421835     111.2789153
  24 BEND      2  6 15                  1.8617547     106.6706876
  25 BEND      3  2  4                  1.8566295     106.3770343
  26 BEND      3  2  5                  1.8564257     106.3653596
  27 BEND      3  2  6                  1.8563668     106.3619840
  28 BEND      4  2  6                  1.9615455     112.3882757
  29 BEND      4  2  5                  1.9615420     112.3880789
  30 BEND      5  2  6                  1.9615340     112.3876199
  31 BEND      7  4  9                  1.9411093     111.2173696
  32 BEND      7  4  8                  1.8865465     108.0911531
  33 BEND      8  4  9                  1.8865760     108.0928403
  34 BEND     10  5 11                  1.8865249     108.0899157
  35 BEND     10  5 12                  1.9411462     111.2194854
  36 BEND     11  5 12                  1.8865127     108.0892176
  37 BEND     13  6 14                  1.9411688     111.2207796
  38 BEND     13  6 15                  1.8864953     108.0882171
  39 BEND     14  6 15                  1.8865259     108.0899695
  40 TORSION   1  3  2  5               0.9826059      56.2991703
  41 TORSION   1  3  2  4               3.0770573     176.3023961
  42 TORSION   1  3  2  6              -1.1117026     -63.6958676
  43 TORSION   3  2  4  8               3.1415018     179.9947971
  44 TORSION   3  2  6 15               3.1414176     179.9899701
  45 TORSION   3  2  6 14              -1.0879358     -62.3341312
  46 TORSION   3  2  4  7              -1.0878237     -62.3277076
  47 TORSION   3  2  5 10              -1.0876530     -62.3179262
  48 TORSION   3  2  6 13               1.0876044      62.3151424
  49 TORSION   3  2  5 11              -3.1414924    -179.9942563
  50 TORSION   3  2  5 12               1.0878833      62.3311241
  51 TORSION   3  2  4  9               1.0876163      62.3158257
  52 TORSION   4  2  6 15              -1.1167595     -63.9856053
  53 TORSION   4  2  6 14               0.9370724      53.6902935
  54 TORSION   4  2  5 10              -3.1126949    -178.3442782
  55 TORSION   4  2  6 13               3.1126126     178.3395670
  56 TORSION   4  2  5 12              -0.9371585     -53.6952280
  57 TORSION   4  2  5 11               1.1166510      63.9793917
  58 TORSION   5  2  6 15               1.1166606      63.9799412
  59 TORSION   5  2  6 14              -3.1126928    -178.3441601
  60 TORSION   5  2  4  7               0.9370955      53.6916197
  61 TORSION   5  2  6 13              -0.9371526     -53.6948865
  62 TORSION   5  2  4  9               3.1125356     178.3351530
  63 TORSION   5  2  4  8              -1.1167642     -63.9858756
  64 TORSION   6  2  4  7              -3.1126739    -178.3430761
  65 TORSION   6  2  5 10               0.9370685      53.6900713
  66 TORSION   6  2  5 11              -1.1167709     -63.9862587
  67 TORSION   6  2  5 12               3.1126049     178.3391216
  68 TORSION   6  2  4  9              -0.9372338     -53.6995428
  69 TORSION   6  2  4  8               1.1166517      63.9794286

          ********************
          1 ELECTRON INTEGRALS
          ********************
 TIME TO DO ORDINARY INTEGRALS=      0.01
 TIME TO DO      ECP INTEGRALS=      0.06
 ...... END OF ONE-ELECTRON INTEGRALS ......
 CPU     0: STEP CPU TIME=     0.07 TOTAL CPU TIME=        0.2 (    0.0 MIN)
 TOTAL WALL CLOCK TIME=        0.3 SECONDS, CPU UTILIZATION IS  57.14%

          -------------
          GUESS OPTIONS
          -------------
          GUESS =HUCKEL            NORB  =       0          NORDER=       0
          MIX   =       F          PRTMO =       F          PUNMO =       F
          TOLZ  = 1.0E-08          TOLE  = 1.0E-05
          SYMDEN=       F          PURIFY=       F

 INITIAL GUESS ORBITALS GENERATED BY HUCKEL   ROUTINE.
 HUCKEL GUESS REQUIRES    916545 WORDS.

 STATISTICS FOR GENERATION OF SYMMETRY ORBITAL -Q- MATRIX
 NUMBER OF CARTESIAN ATOMIC ORBITALS=        354
 NUMBER OF SPHERICAL CONTAMINANTS DROPPED=    38
 NUMBER OF LINEARLY DEPENDENT MOS DROPPED=     0
 TOTAL NUMBER OF MOS IN VARIATION SPACE=     316

 SYMMETRIES FOR INITIAL GUESS ORBITALS FOLLOW.   BOTH SET(S).
    29 ORBITALS ARE OCCUPIED (   13 CORE ORBITALS).
    14=A       15=A       16=A       17=A       18=A       19=A       20=A   
    21=A       22=A       23=A       24=A       25=A       26=A       27=A   
    28=A       29=A       30=A       31=A       32=A       33=A       34=A   
    35=A       36=A       37=A       38=A       39=A   
 ...... END OF INITIAL ORBITAL SELECTION ......
 CPU     0: STEP CPU TIME=     0.20 TOTAL CPU TIME=        0.4 (    0.0 MIN)
 TOTAL WALL CLOCK TIME=        0.8 SECONDS, CPU UTILIZATION IS  48.00%

                    ----------------------
                    AO INTEGRAL TECHNOLOGY
                    ----------------------
     S,P,L SHELL ROTATED AXIS INTEGRALS, REPROGRAMMED BY
        KAZUYA ISHIMURA (IMS) AND JOSE SIERRA (SYNSTAR).
     S,P,D,L SHELL ROTATED AXIS INTEGRALS PROGRAMMED BY
        KAZUYA ISHIMURA (INSTITUTE FOR MOLECULAR SCIENCE).
     S,P,D,F,G SHELL TO TOTAL QUARTET ANGULAR MOMENTUM SUM 5,
        ERIC PROGRAM BY GRAHAM FLETCHER (ELORET AND NASA ADVANCED
        SUPERCOMPUTING DIVISION, AMES RESEARCH CENTER).
     S,P,D,F,G,L SHELL GENERAL RYS QUADRATURE PROGRAMMED BY
        MICHEL DUPUIS (PACIFIC NORTHWEST NATIONAL LABORATORY).

          --------------------
          2 ELECTRON INTEGRALS
          --------------------

 DIRECT SCF METHOD SKIPS INTEGRAL STORAGE ON DISK.
 DIRECT TRANSFORMATION SKIPS AO INTEGRAL STORAGE ON DISK.
  ...... END OF TWO-ELECTRON INTEGRALS .....
 CPU     0: STEP CPU TIME=     0.01 TOTAL CPU TIME=        0.4 (    0.0 MIN)
 TOTAL WALL CLOCK TIME=        0.8 SECONDS, CPU UTILIZATION IS  48.68%

          --------------------------
                 RHF SCF CALCULATION
          --------------------------

     NUCLEAR ENERGY =       336.6510214644
     MAXIT =  200     NPUNCH=    2
     EXTRAP=T  DAMP=F  SHIFT=F  RSTRCT=F  DIIS=F  DEM=F  SOSCF=T
     DENSITY MATRIX CONV=  2.00E-06
     SOSCF WILL OPTIMIZE    8323 ORBITAL ROTATIONS, SOGTOL=   0.250
     MEMORY REQUIRED FOR RHF ITERS=    982670 WORDS.

 DIRECT SCF CALCULATION, SCHWRZ=T   FDIFF=F,  DIRTHR=  0.00E+00 NITDIR=10
 SCHWARZ INEQUALITY OVERHEAD:     62216 INTEGRALS, T=        0.00

                                                                                   NONZERO     BLOCKS
 ITER EX DEM     TOTAL ENERGY        E CHANGE  DENSITY CHANGE     ORB. GRAD      INTEGRALS    SKIPPED
   1  0  0     -563.3552042317  -563.3552042317   0.375751982   0.000000000     1477710696    4111985
          ---------------START SECOND ORDER SCF---------------
   2  1  0     -564.5029265863    -1.1477223545   0.152437164   0.086596976     1465006918    4408580
   3  2  0     -564.6229049588    -0.1199783726   0.062598040   0.057204261     1463738564    4421230
   4  3  0     -564.7121433760    -0.0892384172   0.020228564   0.009750395     1464228120    4410151
   5  4  0     -564.7146222176    -0.0024788415   0.006288385   0.005562947     1464909908    4401161
   6  5  0     -564.7152842944    -0.0006620768   0.002695290   0.001511586     1464922042    4400231
   7  6  0     -564.7153484574    -0.0000641630   0.000975235   0.000558168     1464936738    4400056
   8  7  0     -564.7153575804    -0.0000091230   0.000458792   0.000180488     1464939828    4400056
   9  8  0     -564.7153592731    -0.0000016927   0.000187591   0.000079733     1464942885    4400129
  10  9  0     -564.7153595874    -0.0000003143   0.000085015   0.000029442     1464943755    4400181
  11 10  0     -564.7153596419    -0.0000000544   0.000037931   0.000014619     1464944977    4400171
  12 11  0     -564.7153596493    -0.0000000075   0.000014075   0.000006834     1464945104    4400160
  13 12  0     -564.7153596506    -0.0000000012   0.000005578   0.000002867     1464944613    4400161
  14 13  0     -564.7153596508    -0.0000000002   0.000003110   0.000000940     1464944519    4400165
  15 14  0     -564.7153596509    -0.0000000000   0.000001234   0.000000323     1464944494    4400167

          -----------------
          DENSITY CONVERGED
          -----------------
     TIME TO FORM FOCK OPERATORS=      98.8 SECONDS (       6.6 SEC/ITER)
     FOCK TIME ON FIRST ITERATION=       6.7, LAST ITERATION=       6.5
     TIME TO SOLVE SCF EQUATIONS=       0.4 SECONDS (       0.0 SEC/ITER)

 FINAL RHF ENERGY IS     -564.7153596509 AFTER  15 ITERATIONS

          ------------
          EIGENVECTORS
          ------------

                      1          2          3          4          5
                  -80.4775   -21.0483   -11.6471   -11.6453   -11.6282
                     A          A          A          A          A   
    1  LA 1  S    0.000002  -0.000020   0.000000  -0.000000   0.000008
    2  LA 1  X   -0.000003   0.000006  -0.000005   0.000003   0.000006
    3  LA 1  Y    0.000001  -0.000002  -0.000004   0.000010  -0.000008
    4  LA 1  Z    0.000001  -0.000006  -0.000009  -0.000008   0.000022
    5  LA 1 XX    0.000002   0.000010  -0.000003  -0.000017   0.000004
    6  LA 1 YY    0.000002   0.000001  -0.000018   0.000011   0.000003
    7  LA 1 ZZ   -0.000005  -0.000011   0.000020   0.000006  -0.000007
    8  LA 1 XY   -0.000000   0.000004   0.000007   0.000002  -0.000005
    9  LA 1 XZ    0.000002  -0.000025   0.000019  -0.000008   0.000007
   10  LA 1 YZ    0.000001   0.000017   0.000012  -0.000022  -0.000003
   11  LA 1 XX   -0.000003   0.000078   0.000002   0.000037   0.000027
   12  LA 1 YY   -0.000000   0.000074   0.000042  -0.000023   0.000029
   13  LA 1 ZZ    0.000003  -0.000152  -0.000044  -0.000015  -0.000056
   14  LA 1 XY   -0.000000  -0.000025  -0.000019  -0.000003   0.000009
   15  LA 1 XZ    0.000005   0.000073  -0.000031   0.000026  -0.000003
   16  LA 1 YZ   -0.000004   0.000012  -0.000028   0.000038   0.000027
   17  LA 1  S   -0.000002  -0.000154  -0.000086  -0.000084  -0.000136
   18  LA 1  X    0.000002   0.000039  -0.000002   0.000026   0.000019
   19  LA 1  Y   -0.000002   0.000002  -0.000027   0.000019  -0.000004
   20  LA 1  Z    0.000005  -0.000116  -0.000019  -0.000010  -0.000030
   21  LA 1  S   -0.000000   0.000046   0.000204   0.000200   0.000196
   22  LA 1  X   -0.000001  -0.000037   0.000058  -0.000004  -0.000022
   23  LA 1  Y    0.000001   0.000011   0.000004  -0.000097  -0.000019
   24  LA 1  Z   -0.000004   0.000040   0.000172   0.000149   0.000153
   25  LA 1  S   -0.000012  -0.000065   0.000003   0.000001  -0.000042
   26  LA 1  X    0.000007   0.000011   0.000010  -0.000006  -0.000002
   27  LA 1  Y   -0.000001   0.000028   0.000009  -0.000021   0.000020
   28  LA 1  Z   -0.000013  -0.000163   0.000021   0.000015  -0.000082
   29  LA 1 XX    0.000001  -0.000014  -0.000026  -0.000066  -0.000045
   30  LA 1 YY   -0.000000  -0.000017  -0.000071   0.000006  -0.000049
   31  LA 1 ZZ   -0.000000   0.000031   0.000097   0.000060   0.000094
   32  LA 1 XY    0.000000   0.000011   0.000003  -0.000012  -0.000011
   33  LA 1 XZ   -0.000002  -0.000043   0.000073   0.000002  -0.000005
   34  LA 1 YZ    0.000001   0.000013  -0.000002  -0.000092  -0.000034
   35  P  2  S    1.000138   0.000088   0.000076   0.000077   0.000088
   36  P  2  S    0.000176   0.000547   0.000543   0.000554   0.000624
   37  P  2  S    0.000190   0.000726   0.000850   0.000866   0.000959
   38  P  2  S   -0.000945  -0.000265  -0.000259  -0.000267  -0.000317
   39  P  2  S   -0.000364  -0.002405  -0.000028   0.000014   0.000261
   40  P  2  X   -0.000010  -0.000040   0.000420   0.000023  -0.000406
   41  P  2  Y    0.000021   0.000054   0.000201  -0.000485   0.000180
   42  P  2  Z   -0.000076  -0.000164   0.000115  -0.000012   0.000317
   43  P  2  X   -0.000008  -0.000109   0.001109   0.000058  -0.001054
   44  P  2  Y    0.000018   0.000148   0.000535  -0.001274   0.000470
   45  P  2  Z   -0.000067  -0.000445   0.000284  -0.000052   0.000814
   46  P  2  X    0.000005   0.000035  -0.000044  -0.000004   0.000054
   47  P  2  Y   -0.000011  -0.000047  -0.000016   0.000054  -0.000022
   48  P  2  Z    0.000039   0.000141  -0.000027  -0.000014  -0.000052
   49  P  2  X   -0.000035   0.000030  -0.000048  -0.000009   0.000074
   50  P  2  Y    0.000031  -0.000263  -0.000076  -0.000020  -0.000088
   51  P  2  Z   -0.000061   0.001223   0.000314   0.000332   0.000207
   52  P  2 XX   -0.000003  -0.000083   0.000158  -0.000148   0.000076
   53  P  2 YY   -0.000002  -0.000065  -0.000070   0.000247  -0.000110
   54  P  2 ZZ    0.000005   0.000148  -0.000088  -0.000098   0.000034
   55  P  2 XY    0.000000  -0.000015   0.000169  -0.000023  -0.000125
   56  P  2 XZ    0.000003   0.000065   0.000093   0.000021  -0.000198
   57  P  2 YZ   -0.000003  -0.000090   0.000011   0.000016   0.000074
   58  P  2 XX   -0.000018  -0.000071   0.000412  -0.000114   0.000155
   59  P  2 YY   -0.000016  -0.000115  -0.000103   0.000540  -0.000145
   60  P  2 ZZ    0.000034   0.000186  -0.000309  -0.000426  -0.000010
   61  P  2 XY   -0.000008  -0.000098   0.000234  -0.000063  -0.000126
   62  P  2 XZ    0.000020   0.000093   0.000162  -0.000136  -0.000509
   63  P  2 YZ   -0.000024  -0.000130   0.000269  -0.000004   0.000267
   64  P  2 XXX   0.000005   0.000085   0.000046   0.000011   0.000009
   65  P  2 YYY  -0.000007  -0.000021  -0.000036  -0.000070  -0.000052
   66  P  2 ZZZ  -0.000008  -0.000170  -0.000027   0.000005  -0.000072
   67  P  2 XXY  -0.000000  -0.000172   0.000047   0.000023   0.000032
   68  P  2 XXZ   0.000007   0.000093   0.000011   0.000031   0.000083
   69  P  2 YYX   0.000001   0.000012   0.000013   0.000007   0.000016
   70  P  2 YYZ   0.000004   0.000135   0.000025  -0.000038   0.000014
   71  P  2 ZZX  -0.000007  -0.000127  -0.000074  -0.000021  -0.000028
   72  P  2 ZZY   0.000010   0.000200   0.000002   0.000070   0.000038
   73  P  2 XYZ   0.000004   0.000100   0.000014   0.000018  -0.000035
   74  P  2 XX    0.000001   0.000024  -0.000001   0.000004  -0.000001
   75  P  2 YY    0.000001   0.000020   0.000002  -0.000003   0.000004
   76  P  2 ZZ   -0.000002  -0.000044  -0.000001  -0.000001  -0.000003
   77  P  2 XY    0.000000   0.000006  -0.000002   0.000001   0.000004
   78  P  2 XZ   -0.000001  -0.000020  -0.000002  -0.000002   0.000004
   79  P  2 YZ    0.000001   0.000027   0.000003   0.000001  -0.000000
   80  O  3  S   -0.000002   0.975630   0.000026   0.000026   0.000027
   81  O  3  S   -0.000004  -0.001144   0.000037   0.000038   0.000041
   82  O  3  S    0.000005   0.043359  -0.000011  -0.000011  -0.000008
   83  O  3  S   -0.000065   0.004634   0.000185   0.000184   0.000110
   84  O  3  X    0.000000   0.000442  -0.000007  -0.000003   0.000004
   85  O  3  Y   -0.000000  -0.000325   0.000001   0.000008   0.000000
   86  O  3  Z    0.000000   0.000485  -0.000008  -0.000007  -0.000013
   87  O  3  X   -0.000006  -0.000290   0.000017   0.000008  -0.000013
   88  O  3  Y    0.000006   0.000263  -0.000003  -0.000020  -0.000001
   89  O  3  Z   -0.000016  -0.000561   0.000020   0.000018   0.000043
   90  O  3  X   -0.000009   0.000339  -0.000072  -0.000005   0.000099
   91  O  3  Y    0.000017  -0.000256  -0.000044   0.000075  -0.000027
[...]
            144  C  4 XXZ     0.00083     0.07712
            145  C  4 YYX     0.00093     0.06809
            146  C  4 YYZ     0.00126     0.06578
            147  C  4 ZZX     0.00000     0.07357
            148  C  4 ZZY     0.00000     0.06935
            149  C  4 XYZ     0.00000     0.00294
            150  C  5  S      1.95557     1.55570
            151  C  5  S      0.82747     0.43108
            152  C  5  S      0.16151     0.27807
            153  C  5  S      0.33647     0.14802
            154  C  5  X      0.26946     0.20983
            155  C  5  Y      0.29454     0.22666
            156  C  5  Z      0.29582     0.22668
            157  C  5  X      0.51093     0.26496
            158  C  5  Y      0.53952     0.28034
            159  C  5  Z      0.54170     0.28020
            160  C  5  X      0.12675     0.18032
            161  C  5  Y      0.19528     0.20357
            162  C  5  Z      0.24876     0.21372
            163  C  5 XX      0.00505     0.08630
            164  C  5 YY      0.00528     0.08694
            165  C  5 ZZ      0.00411     0.08556
            166  C  5 XY      0.00433     0.00470
            167  C  5 XZ      0.00343     0.00437
            168  C  5 YZ      0.00000     0.00377
            169  C  5 XX      0.00862     0.09300
            170  C  5 YY      0.01326     0.09044
            171  C  5 ZZ      0.01142     0.08466
            172  C  5 XY      0.00900     0.02654
            173  C  5 XZ      0.00836     0.02556
            174  C  5 YZ      0.00000     0.01476
            175  C  5 XXX     0.00093     0.15790
            176  C  5 YYY     0.00082     0.17263
            177  C  5 ZZZ     0.00097     0.16403
            178  C  5 XXY     0.00096     0.07565
            179  C  5 XXZ     0.00105     0.08295
            180  C  5 YYX     0.00065     0.06775
            181  C  5 YYZ     0.00136     0.06730
            182  C  5 ZZX     0.00000     0.07441
            183  C  5 ZZY     0.00000     0.06743
            184  C  5 XYZ     0.00000     0.00251
            185  C  6  S      1.95557     1.55596
            186  C  6  S      0.82757     0.43273
            187  C  6  S      0.16156     0.27887
            188  C  6  S      0.33347     0.14866
            189  C  6  X      0.30032     0.22840
            190  C  6  Y      0.26092     0.20772
            191  C  6  Z      0.29857     0.22842
            192  C  6  X      0.54333     0.27923
            193  C  6  Y      0.50172     0.26692
            194  C  6  Z      0.54700     0.27999
            195  C  6  X      0.20081     0.20589
            196  C  6  Y      0.10955     0.17187
            197  C  6  Z      0.25508     0.21426
            198  C  6 XX      0.00529     0.08692
            199  C  6 YY      0.00604     0.09052
            200  C  6 ZZ      0.00338     0.08635
            201  C  6 XY      0.00470     0.00307
            202  C  6 XZ      0.00280     0.00493
            203  C  6 YZ      0.00000     0.00256
            204  C  6 XX      0.01057     0.08773
            205  C  6 YY      0.01481     0.10350
            206  C  6 ZZ      0.00990     0.08583
            207  C  6 XY      0.00916     0.02098
            208  C  6 XZ      0.00637     0.02307
            209  C  6 YZ      0.00000     0.01377
            210  C  6 XXX     0.00088     0.16176
            211  C  6 YYY     0.00095     0.16945
            212  C  6 ZZZ     0.00088     0.16262
            213  C  6 XXY     0.00113     0.06916
            214  C  6 XXZ     0.00092     0.07880
            215  C  6 YYX     0.00058     0.07691
            216  C  6 YYZ     0.00142     0.07412
            217  C  6 ZZX     0.00000     0.07787
            218  C  6 ZZY     0.00000     0.06604
            219  C  6 XYZ     0.00000     0.00270
            220  H  7  S      0.25175     0.19452
            221  H  7  S      0.45124     0.24357
            222  H  7  S      0.05720     0.11781
            223  H  7  X      0.00162     0.00213
            224  H  7  Y      0.00753     0.01116
            225  H  7  Z      0.00163     0.00207
            226  H  7  X      0.01014     0.02840
            227  H  7  Y      0.00480     0.04772
            228  H  7  Z      0.00962     0.02934
            229  H  7 XX      0.00028     0.06915
            230  H  7 YY      0.00065     0.11691
            231  H  7 ZZ      0.00097     0.06894
            232  H  7 XY      0.00011     0.00494
            233  H  7 XZ      0.00089     0.00025
            234  H  7 YZ      0.00000     0.00492
            235  H  8  S      0.24781     0.18810
            236  H  8  S      0.45110     0.23984
            237  H  8  S      0.04885     0.11538
            238  H  8  X      0.00178     0.00242
            239  H  8  Y      0.00208     0.00298
            240  H  8  Z      0.00691     0.00958
            241  H  8  X      0.00848     0.02960
            242  H  8  Y      0.00748     0.02977
            243  H  8  Z      0.00806     0.04650
            244  H  8 XX      0.00098     0.06939
            245  H  8 YY      0.00017     0.07183
            246  H  8 ZZ      0.00015     0.10733
            247  H  8 XY      0.00083     0.00059
            248  H  8 XZ      0.00074     0.00522
            249  H  8 YZ      0.00000     0.00550
            250  H  9  S      0.25162     0.18791
            251  H  9  S      0.45076     0.24177
            252  H  9  S      0.05637     0.11796
            253  H  9  X      0.00632     0.00846
            254  H  9  Y      0.00249     0.00363
            255  H  9  Z      0.00198     0.00274
            256  H  9  X      0.00938     0.04479
            257  H  9  Y      0.00695     0.03109
            258  H  9  Z      0.00819     0.03062
            259  H  9 XX      0.00038     0.10287
            260  H  9 YY      0.00091     0.07560
            261  H  9 ZZ      0.00068     0.07078
            262  H  9 XY      0.00073     0.00569
            263  H  9 XZ      0.00021     0.00514
            264  H  9 YZ      0.00000     0.00114
            265  H 10  S      0.25427     0.18694
            266  H 10  S      0.45736     0.24369
            267  H 10  S      0.07225     0.12100
            268  H 10  X      0.00497     0.00674
            269  H 10  Y      0.00220     0.00302
            270  H 10  Z      0.00347     0.00467
            271  H 10  X      0.01133     0.04256
            272  H 10  Y      0.00750     0.03072
            273  H 10  Z      0.00564     0.03615
            274  H 10 XX      0.00062     0.09413
            275  H 10 YY      0.00079     0.07212
            276  H 10 ZZ      0.00054     0.08344
            277  H 10 XY      0.00060     0.00402
            278  H 10 XZ      0.00033     0.00562
            279  H 10 YZ      0.00000     0.00240
            280  H 11  S      0.24687     0.18806
            281  H 11  S      0.44447     0.23804
            282  H 11  S      0.04185     0.11270
            283  H 11  X      0.00191     0.00287
            284  H 11  Y      0.00201     0.00286
            285  H 11  Z      0.00686     0.00946
            286  H 11  X      0.01042     0.02982
            287  H 11  Y      0.00744     0.02953
            288  H 11  Z      0.00524     0.04619
            289  H 11 XX      0.00084     0.07018
            290  H 11 YY      0.00021     0.07126
            291  H 11 ZZ      0.00014     0.10681
            292  H 11 XY      0.00091     0.00065
            293  H 11 XZ      0.00076     0.00534
            294  H 11 YZ      0.00000     0.00529
            295  H 12  S      0.25248     0.19482
            296  H 12  S      0.44730     0.24393
            297  H 12  S      0.05623     0.11766
            298  H 12  X      0.00157     0.00201
            299  H 12  Y      0.00750     0.01117
            300  H 12  Z      0.00173     0.00210
            301  H 12  X      0.01031     0.02847
            302  H 12  Y      0.00493     0.04827
            303  H 12  Z      0.00774     0.02951
            304  H 12 XX      0.00030     0.06921
            305  H 12 YY      0.00065     0.11705
            306  H 12 ZZ      0.00101     0.06905
            307  H 12 XY      0.00009     0.00478
            308  H 12 XZ      0.00081     0.00020
            309  H 12 YZ      0.00000     0.00508
            310  H 13  S      0.25420     0.18693
            311  H 13  S      0.45758     0.24306
            312  H 13  S      0.07218     0.12052
            313  H 13  X      0.00476     0.00619
            314  H 13  Y      0.00234     0.00349
            315  H 13  Z      0.00355     0.00483
            316  H 13  X      0.00496     0.03968
            317  H 13  Y      0.01350     0.03314
            318  H 13  Z      0.00612     0.03602
            319  H 13 XX      0.00060     0.09211
            320  H 13 YY      0.00062     0.07359
            321  H 13 ZZ      0.00065     0.08385
            322  H 13 XY      0.00058     0.00388
            323  H 13 XZ      0.00042     0.00552
            324  H 13 YZ      0.00000     0.00258
            325  H 14  S      0.25226     0.18867
            326  H 14  S      0.44727     0.24167
            327  H 14  S      0.05540     0.11735
            328  H 14  X      0.00604     0.00792
            329  H 14  Y      0.00265     0.00415
            330  H 14  Z      0.00212     0.00291
            331  H 14  X      0.00356     0.04316
            332  H 14  Y      0.01217     0.03363
            333  H 14  Z      0.00737     0.03026
            334  H 14 XX      0.00037     0.10121
            335  H 14 YY      0.00079     0.07739
            336  H 14 ZZ      0.00077     0.07131
            337  H 14 XY      0.00067     0.00560
            338  H 14 XZ      0.00026     0.00513
            339  H 14 YZ      0.00000     0.00133
            340  H 15  S      0.24698     0.18818
            341  H 15  S      0.44506     0.23840
            342  H 15  S      0.04271     0.11306
            343  H 15  X      0.00182     0.00253
            344  H 15  Y      0.00227     0.00360
            345  H 15  Z      0.00669     0.00910
            346  H 15  X      0.00762     0.02863
            347  H 15  Y      0.01148     0.03205
            348  H 15  Z      0.00410     0.04555
            349  H 15 XX      0.00084     0.06867
            350  H 15 YY      0.00027     0.07415
            351  H 15 ZZ      0.00017     0.10575
            352  H 15 XY      0.00072     0.00072
            353  H 15 XZ      0.00086     0.00524
            354  H 15 YZ      0.00000     0.00545

          ----- MULLIKEN ATOMIC OVERLAP POPULATIONS -----
          (OFF-DIAGONAL ELEMENTS NEED TO BE MULTIPLIED BY 2)

             1           2           3           4           5

    1    8.5778808
    2   -0.0113313  13.3079968
    3    0.0303318   0.2123861   8.5609205
    4   -0.0006741   0.3386404  -0.0161963   4.9881888
    5    0.0015711   0.3412578  -0.0158310  -0.0319951   5.0388209
    6    0.0011029   0.3419752  -0.0168918  -0.0321317  -0.0324202
    7    0.0002822  -0.0158468   0.0008002   0.3652674  -0.0024785
    8    0.0007275  -0.0154759   0.0009810   0.3608549  -0.0003794
    9    0.0002591  -0.0160966   0.0007699   0.3656619   0.0020707
   10    0.0012391  -0.0157345   0.0000377   0.0027261   0.3611227
   11    0.0002408  -0.0138362   0.0015018  -0.0011026   0.3564777
   12    0.0009057  -0.0189044   0.0009212  -0.0024152   0.3664135
   13    0.0011198  -0.0151338   0.0002023   0.0027291  -0.0036238
   14    0.0007740  -0.0185367   0.0009786  -0.0023024   0.0022520
   15    0.0002921  -0.0137823   0.0014350  -0.0010909   0.0001030

             6           7           8           9          10

    6    5.0318089
    7    0.0021133   0.4757945
    8   -0.0004609  -0.0122917   0.4640011
    9   -0.0023976  -0.0155867  -0.0120623   0.4739985
   10   -0.0036145   0.0000402   0.0000115  -0.0000675   0.5085508
   11    0.0000479  -0.0001504   0.0000191   0.0000233  -0.0111776
   12    0.0022991   0.0005471  -0.0002599  -0.0000247  -0.0220432
   13    0.3607295  -0.0000678   0.0000113   0.0000413   0.0009307
   14    0.3662322  -0.0000213  -0.0002550   0.0005300  -0.0000211
   15    0.3568673   0.0000191   0.0000130  -0.0001709  -0.0001443

            11          12          13          14          15

   11    0.4461724
   12   -0.0080670   0.4733318
   13   -0.0001232  -0.0000184   0.5079837
   14    0.0000235  -0.0000600  -0.0211213   0.4715175
   15   -0.0001170   0.0000223  -0.0116126  -0.0082915   0.4480451

          TOTAL MULLIKEN AND LOWDIN ATOMIC POPULATIONS
       ATOM         MULL.POP.    CHARGE          LOW.POP.     CHARGE
    1 LA            8.604722    2.395278         8.782808    2.217192
    2 P            14.387578    0.612422        14.330306    0.669694
    3 O             8.762347   -0.762347         8.393786   -0.393786
    4 C             6.336160   -0.336160         6.023393   -0.023393
    5 C             6.383361   -0.383361         6.038268   -0.038268
    6 C             6.375260   -0.375260         6.047551   -0.047551
    7 H             0.798421    0.201579         0.941828    0.058172
    8 H             0.785434    0.214566         0.924040    0.075960
    9 H             0.796948    0.203052         0.930209    0.069791
   10 H             0.821856    0.178144         0.937221    0.062779
   11 H             0.769932    0.230068         0.919057    0.080943
   12 H             0.792648    0.207352         0.943308    0.056692
   13 H             0.822047    0.177953         0.935398    0.064602
   14 H             0.791699    0.208301         0.931707    0.068293
   15 H             0.771587    0.228413         0.921118    0.078882

          MULLIKEN SPHERICAL HARMONIC POPULATIONS
       ATOM           S       P       D      F      G      H      I    TOTAL
    1 LA            2.01    6.10    0.50   0.00   0.00   0.00   0.00    8.60
    2 P             5.34    8.39    0.58   0.07   0.00   0.00   0.00   14.39
    3 O             3.79    4.93    0.04   0.00   0.00   0.00   0.00    8.76
    4 C             3.27    2.99    0.07   0.01   0.00   0.00   0.00    6.34
    5 C             3.28    3.02    0.07   0.01   0.00   0.00   0.00    6.38
    6 C             3.28    3.02    0.07   0.01   0.00   0.00   0.00    6.38
    7 H             0.76    0.04    0.00   0.00   0.00   0.00   0.00    0.80
    8 H             0.75    0.03    0.00   0.00   0.00   0.00   0.00    0.79
    9 H             0.76    0.04    0.00   0.00   0.00   0.00   0.00    0.80
   10 H             0.78    0.04    0.00   0.00   0.00   0.00   0.00    0.82
   11 H             0.73    0.03    0.00   0.00   0.00   0.00   0.00    0.77
   12 H             0.76    0.03    0.00   0.00   0.00   0.00   0.00    0.79
   13 H             0.78    0.04    0.00   0.00   0.00   0.00   0.00    0.82
   14 H             0.75    0.03    0.00   0.00   0.00   0.00   0.00    0.79
   15 H             0.73    0.03    0.00   0.00   0.00   0.00   0.00    0.77

          -------------------------------
          BOND ORDER AND VALENCE ANALYSIS     BOND ORDER THRESHOLD=0.050
          -------------------------------

                   BOND                       BOND                       BOND
  ATOM PAIR DIST  ORDER      ATOM PAIR DIST  ORDER      ATOM PAIR DIST  ORDER
    1   3  2.101  0.690        2   3  1.700  0.795        2   4  1.769  1.033
    2   5  1.775  1.011        2   6  1.774  1.012        4   7  1.090  0.873
    4   8  1.095  0.858        4   9  1.090  0.873        5  10  1.089  0.879
    5  11  1.096  0.855        5  12  1.090  0.874        6  13  1.089  0.879
    6  14  1.090  0.873        6  15  1.096  0.856

                       TOTAL       BONDED        FREE
      ATOM            VALENCE     VALENCE     VALENCE
    1 LA                0.682       0.761      -0.079
    2 P                 4.600       4.245       0.356
    3 O                 2.084       1.522       0.562
    4 C                 3.933       3.642       0.291
    5 C                 3.928       3.634       0.294
    6 C                 3.927       3.634       0.293
    7 H                 0.975       0.925       0.050
    8 H                 0.968       0.917       0.051
    9 H                 0.975       0.924       0.050
   10 H                 0.982       0.930       0.052
   11 H                 0.965       0.915       0.050
   12 H                 0.971       0.920       0.050
   13 H                 0.983       0.930       0.052
   14 H                 0.971       0.920       0.050
   15 H                 0.965       0.915       0.050

          ---------------------
          ELECTROSTATIC MOMENTS
          ---------------------

 POINT   1           X           Y           Z (BOHR)    CHARGE
                 0.576761    1.117390   -4.917766        3.00 (A.U.)
         DX          DY          DZ         /D/  (DEBYE)
     1.372300   -0.452652   -1.103505    1.818193
 ...... END OF PROPERTY EVALUATION ......
 CPU     0: STEP CPU TIME=     0.23 TOTAL CPU TIME=     3356.0 (   55.9 MIN)
 TOTAL WALL CLOCK TIME=     3404.2 SECONDS, CPU UTILIZATION IS  98.58%
  $VIB   
          IVIB=   0 IATOM=   0 ICOORD=   0 E=     -565.6012072149
 -1.597284617E-05-3.368766024E-05-1.189954055E-05 4.757611054E-05-6.363403023E-05
 -6.070670420E-05 2.231426895E-05 8.449773558E-05 5.080071006E-06-4.025393141E-05
  1.449156059E-05-1.040431698E-06-2.624892265E-05 3.022129843E-05 2.609376197E-05
 -3.024122985E-05-2.859151874E-06 1.022230271E-05 4.185681353E-06-1.303787584E-06
  1.098038467E-05 1.190295668E-05-5.985844399E-06-2.912179431E-06 1.365275146E-06
 -7.170369879E-06 1.277788277E-05-4.724228309E-06-1.514511772E-05 1.156312234E-06
 -1.080115619E-06-6.424575277E-06-1.113513703E-06 8.026639880E-06-2.083615577E-06
  3.069974558E-07 1.096590779E-05 1.100313875E-05 5.984483008E-06 4.249683620E-06
 -6.305840490E-06 4.698225879E-06 7.934750037E-06 4.386259922E-06 3.719478691E-07
  1.372300472E+00-4.526521852E-01-1.103505208E+00
 ......END OF GEOMETRY SEARCH......
 CPU     0: STEP CPU TIME=     0.00 TOTAL CPU TIME=     3356.0 (   55.9 MIN)
 TOTAL WALL CLOCK TIME=     3404.2 SECONDS, CPU UTILIZATION IS  98.58%
               2991967  WORDS OF DYNAMIC MEMORY USED
 EXECUTION OF GAMESS TERMINATED NORMALLY Sun Jun 12 02:37:21 2016
 DDI: 44487344 bytes (42.4 MB / 5 MWords) used by master data server.

 ----------------------------------------
 CPU timing information for all processes
 ========================================
 0: 3351.475 + 4.618 = 3356.93
 1: 3349.734 + 4.381 = 3354.116
 2: 3350.566 + 4.507 = 3355.73
 3: 3350.484 + 4.519 = 3355.03
 4: 3351.785 + 4.549 = 3356.334
 5: 3350.957 + 4.464 = 3355.421
 6: 3353.478 + 4.512 = 3357.990
 7: 3347.592 + 4.525 = 3352.117
 8: 3353.162 + 4.562 = 3357.724
 9: 3355.399 + 4.421 = 3359.821
 10: 3354.807 + 4.610 = 3359.418
 11: 3352.661 + 4.482 = 3357.143
 12: 3354.40 + 4.485 = 3358.525
 13: 3352.749 + 4.617 = 3357.366
 14: 3352.746 + 4.488 = 3357.234
 15: 3350.552 + 3.464 = 3354.17
 16: 0.22 + 0.100 = 0.123
 17: 0.14 + 0.119 = 0.134
 18: 0.11 + 0.110 = 0.122
 19: 0.07 + 0.119 = 0.127
 20: 0.10 + 0.112 = 0.123
 21: 0.10 + 0.124 = 0.135
 22: 0.13 + 0.109 = 0.123
 23: 0.15 + 0.110 = 0.126
 24: 0.16 + 0.122 = 0.139
 25: 0.10 + 0.117 = 0.128
 26: 0.09 + 0.115 = 0.125
 27: 0.09 + 0.116 = 0.126
 28: 0.09 + 0.118 = 0.128
 29: 0.20 + 0.99 = 0.120
 30: 0.08 + 0.117 = 0.126
 31: 0.12 + 0.115 = 0.128
 ----------------------------------------
unset echo
----- accounting info -----
Files used on the master node node240 were:
-rw-r--r-- 1 fzahari quantum     1969 Jun 12 01:40 /local/scratch/fzahari/196892.share/ang_var-1520.F05
-rw-r--r-- 1 fzahari quantum 17178000 Jun 12 02:37 /local/scratch/fzahari/196892.share/ang_var-1520.F10
-rw-r--r-- 1 fzahari quantum        8 Jun 12 01:40 /local/scratch/fzahari/196892.share/ang_var-1520.nodes.mpd
ls: No match.
ls: No match.
ls: No match.
Sun Jun 12 02:37:24 CDT 2016
53633.032u 77.207s 56:48.85 1575.6%	0+0k 104+459920io 0pf+0w
