----- GAMESS execution script 'rungms' -----
This job is running on host node159
under operating system Linux at Fri Jun 10 10:16:56 CDT 2016
PBS has assigned the following compute nodes to this run:
node159
Available scratch disk space (Kbyte units) at beginning of the job is
Filesystem           1K-blocks      Used Available Use% Mounted on
/dev/sda7            2670838024    209484 2534957756   1% /local
GAMESS temporary binary files will be written to /local/scratch/fzahari/196725.share
GAMESS supplementary output files will be written to /work1/quantum/fzahari/scr
Copying input file ang_var-1800.inp to your run's scratch directory...
cp ang_var-1800.inp /local/scratch/fzahari/196725.share/ang_var-1800.F05
unset echo
setenv I_MPI_WAIT_MODE enable
setenv I_MPI_PIN disable
setenv I_MPI_DEBUG 0
setenv I_MPI_STATS 0
setenv I_MPI_FABRICS dapl
setenv I_MPI_DAT_LIBRARY libdat2.so
unset echo
MPI kickoff will run GAMESS on 16 cores in 1 nodes.
The binary to be executed is /home/mschmidt/gamess/gamess.132.x
MPI will run 16 compute processes and 16 data servers,
    placing 16 of each process type onto each node.
The scratch disk space on each node is /local/scratch/fzahari/196725.share, with free space
Filesystem           1K-blocks      Used Available Use% Mounted on
/dev/sda7            2670838024    209508 2534957732   1% /local
setenv I_MPI_HYDRA_ENV all
setenv I_MPI_PERHOST 32
unset echo
mpiexec.hydra -f /local/scratch/fzahari/196725.share/ang_var-1800.processes.mpd -n 32 /home/mschmidt/gamess/gamess.132.x
          ******************************************************
          *         GAMESS VERSION =  5 DEC 2014 (R1)          *
          *             FROM IOWA STATE UNIVERSITY             *
          * M.W.SCHMIDT, K.K.BALDRIDGE, J.A.BOATZ, S.T.ELBERT, *
          *   M.S.GORDON, J.H.JENSEN, S.KOSEKI, N.MATSUNAGA,   *
          *          K.A.NGUYEN, S.J.SU, T.L.WINDUS,           *
          *       TOGETHER WITH M.DUPUIS, J.A.MONTGOMERY       *
          *         J.COMPUT.CHEM.  14, 1347-1363(1993)        *
          **************** 64 BIT INTEL VERSION ****************

  SINCE 1993, STUDENTS AND POSTDOCS WORKING AT IOWA STATE UNIVERSITY
  AND ALSO IN THEIR VARIOUS JOBS AFTER LEAVING ISU HAVE MADE IMPORTANT
  CONTRIBUTIONS TO THE CODE:
     IVANA ADAMOVIC, CHRISTINE AIKENS, YURI ALEXEEV, POOJA ARORA,
     ANDREY ASADCHEV, ROB BELL, PRADIPTA BANDYOPADHYAY, JONATHAN BENTZ,
     BRETT BODE, KURT BRORSEN, CALEB CARLIN, GALINA CHABAN, WEI CHEN,
     CHEOL HO CHOI, PAUL DAY, ALBERT DEFUSCO, NUWAN DESILVA, TIM DUDLEY,
     DMITRI FEDOROV, GRAHAM FLETCHER, MARK FREITAG, KURT GLAESEMANN,
     DAN KEMP, GRANT MERRILL, NORIYUKI MINEZAWA, JONATHAN MULLIN,
     TAKESHI NAGATA, SEAN NEDD, HEATHER NETZLOFF, BOSILJKA NJEGIC, RYAN OLSON,
     MIKE PAK, SPENCER PRUITT, LUKE ROSKOP, JIM SHOEMAKER, LYUDMILA SLIPCHENKO,
     TONY SMITH, SAROM SOK, JIE SONG, TETSUYA TAKETSUGU, SIMON WEBB,
     PENG XU, SOOHAENG YOO, FEDERICO ZAHARIEV

  ADDITIONAL CODE HAS BEEN PROVIDED BY COLLABORATORS IN OTHER GROUPS:
     IOWA STATE UNIVERSITY:
          JOE IVANIC, AARON WEST, LAIMUTIS BYTAUTAS, KLAUS RUEDENBERG
     UNIVERSITY OF TOKYO: KIMIHIKO HIRAO, TAKAHITO NAKAJIMA,
          TAKAO TSUNEDA, MUNEAKI KAMIYA, SUSUMU YANAGISAWA,
          KIYOSHI YAGI, MAHITO CHIBA, SEIKEN TOKURA, NAOAKI KAWAKAMI
     UNIVERSITY OF AARHUS: FRANK JENSEN
     UNIVERSITY OF IOWA: VISVALDAS KAIRYS, HUI LI
     NATIONAL INST. OF STANDARDS AND TECHNOLOGY: WALT STEVENS, DAVID GARMER
     UNIVERSITY OF PISA: BENEDETTA MENNUCCI, JACOPO TOMASI
     UNIVERSITY OF MEMPHIS: HENRY KURTZ, PRAKASHAN KORAMBATH
     UNIVERSITY OF ALBERTA: TOBY ZENG, MARIUSZ KLOBUKOWSKI
     UNIVERSITY OF NEW ENGLAND: MARK SPACKMAN
     MIE UNIVERSITY: HIROAKI UMEDA
     NAT. INST. OF ADVANCED INDUSTRIAL SCIENCE AND TECHNOLOGY: KAZUO KITAURA
     MICHIGAN STATE UNIVERSITY:
          KAROL KOWALSKI, MARTA WLOCH, JEFFREY GOUR, JESSE LUTZ,
          WEI LI, PIOTR PIECUCH
     UNIVERSITY OF SILESIA: MONIKA MUSIAL, STANISLAW KUCHARSKI
     FACULTES UNIVERSITAIRES NOTRE-DAME DE LA PAIX:
          OLIVIER QUINET, BENOIT CHAMPAGNE
     UNIVERSITY OF CALIFORNIA - SANTA BARBARA: BERNARD KIRTMAN
     INSTITUTE FOR MOLECULAR SCIENCE:
          KAZUYA ISHIMURA, MICHIO KATOUDA, AND SHIGERU NAGASE
     UNIVERSITY OF NOTRE DAME: ANNA POMOGAEVA, DAN CHIPMAN
     KYUSHU UNIVERSITY:
          HARUYUKI NAKANO,
          FENG LONG GU, JACEK KORCHOWIEC, MARCIN MAKOWSKI, AND YURIKO AOKI,
          HIROTOSHI MORI AND EISAKU MIYOSHI
     PENNSYLVANIA STATE UNIVERSITY:
          TZVETELIN IORDANOV, CHET SWALINA, JONATHAN SKONE,
          SHARON HAMMES-SCHIFFER
     WASEDA UNIVERSITY:
          MASATO KOBAYASHI, TOMOKO AKAMA, TSUGUKI TOUMA,
          TAKESHI YOSHIKAWA, YASUHIRO IKABATA, HIROMI NAKAI
     NANJING UNIVERSITY: SHUHUA LI
     UNIVERSITY OF NEBRASKA:
          PEIFENG SU, DEJUN SI, NANDUN THELLAMUREGE, YALI WANG, HUI LI
     UNIVERSITY OF ZURICH: ROBERTO PEVERATI, KIM BALDRIDGE
     N. COPERNICUS UNIVERSITY AND JACKSON STATE UNIVERSITY:
          MARIA BARYSZ
     UNIVERSITY OF COPENHAGEN: CASPER STEINMANN
     TOKYO INSTITUTE OF TECHNOLOGY: HIROYA NAKATA
     NAGOYA UNIVERSITY: YOSHIO NISHIMOTO, STEPHAN IRLE


 PARALLEL VERSION RUNNING ON       16 PROCESSORS IN        1 NODES.

 EXECUTION OF GAMESS BEGUN Fri Jun 10 10:16:57 2016

            ECHO OF THE FIRST FEW INPUT CARDS -
 INPUT CARD> $CONTRL ICHARG=+3 MULT=1                                                       
 INPUT CARD>         MPLEVL=2                                                               
 INPUT CARD>         SCFTYP=RHF                                                             
 INPUT CARD>         MAXIT=200 ISPHER=1 ICUT=11                                             
 INPUT CARD>         RUNTYP=OPTIMIZE                                                        
 INPUT CARD>         PP=READ                                                                
 INPUT CARD>         $END                                                                   
 INPUT CARD> $SCF    DIRSCF=.T. FDIFF=.F. $END                                              
 INPUT CARD> $TRANS  DIRTRF=.T. $END                                                        
 INPUT CARD> $SYSTEM MWORDS=300 MEMDDI=300 $END                                             
 INPUT CARD> $GUESS  GUESS=HUCKEL $END                                                      
 INPUT CARD> $BASIS  BASNAM(1)=METAL,                                                       
 INPUT CARD>                   LIGP,                                                        
 INPUT CARD>                   LIGO,                                                        
 INPUT CARD>                   LIGC,                                                        
 INPUT CARD>                   LIGC,                                                        
 INPUT CARD>                   LIGC,                                                        
 INPUT CARD>                   LIGH,                                                        
 INPUT CARD>                   LIGH,                                                        
 INPUT CARD>                   LIGH,                                                        
 INPUT CARD>                   LIGH,                                                        
 INPUT CARD>                   LIGH,                                                        
 INPUT CARD>                   LIGH,                                                        
 INPUT CARD>                   LIGH,                                                        
 INPUT CARD>                   LIGH,                                                        
 INPUT CARD>                   LIGH                                                         
 INPUT CARD> $END                                                                           
 INPUT CARD> $DATA                                                                          
 INPUT CARD>                                                                                
 INPUT CARD> C1                                                                             
 INPUT CARD> LA 57.0 0.31435 0.88028 -4.02887                                               
 INPUT CARD> P 15.0 -0.436203298816 0.499987348281 -0.323167007745                          
 INPUT CARD> O 8.0 -0.10013 0.67027 -1.98246                                                
 INPUT CARD> C 6.0 -1.96635890212 1.34538076138 -0.0340076036706                            
 INPUT CARD> C 6.0 0.920085164476 1.24509476633 0.539968159251                              
 INPUT CARD> C 6.0 -0.558027283514 -1.24060791236 -0.0146017334827                          
 INPUT CARD> H 1.0 -1.87909012282 2.40814642961 -0.256771025285                             
 INPUT CARD> H 1.0 -2.18747009652 1.23863856161 1.03345726994                               
 INPUT CARD> H 1.0 -2.78154535049 0.890518715874 -0.595487361845                            
 INPUT CARD> H 1.0 1.85563209972 0.729341540721 0.326783409292                              
 INPUT CARD> H 1.0 0.708761475791 1.1381004633 1.60939730773                                
 INPUT CARD> H 1.0 0.995781423597 2.30824778901 0.314852093764                              
 INPUT CARD> H 1.0 0.383432389431 -1.74639142296 -0.225647554881                            
 INPUT CARD> H 1.0 -1.37893630491 -1.68511996884 -0.576029675018                            
 INPUT CARD> H 1.0 -0.774270312317 -1.35609975273 1.05296189844                             
 INPUT CARD> $END                                                                           
 INPUT CARD>!                                                                               
 INPUT CARD> $ECP                                                                           
 INPUT CARD> La-ECP SBKJC                                                                   
 INPUT CARD> P-ECP  NONE                                                                    
  300000000 WORDS OF MEMORY AVAILABLE

     BASIS OPTIONS
     -------------
     GBASIS=             IGAUSS=       0      POLAR=NONE    
     NDFUNC=       0     NFFUNC=       0     DIFFSP=       F
     NPFUNC=       0      DIFFS=       F     BASNAM=METAL   

 USING BASNAM FOR ATOM CUSTOMIZED BASIS CONSTRUCTION
     ----------------
     ATOM  BASIS NAME
     ----------------
       1   METAL   
       2   LIGP    
       3   LIGO    
       4   LIGC    
       5   LIGC    
       6   LIGC    
       7   LIGH    
       8   LIGH    
       9   LIGH    
      10   LIGH    
      11   LIGH    
      12   LIGH    
      13   LIGH    
      14   LIGH    
      15   LIGH    
 NOW LOCATING ALL   15 BASIS SETS IN YOUR INPUT FILE...
 FOUND BASIS SET  $METAL 
  SBKJC                        
                               
  $END                         
 FOUND BASIS SET  $LIGP  
  CCT                          
                               
  $END                         
 FOUND BASIS SET  $LIGO  
  CCT                          
                               
  $END                         
 FOUND BASIS SET  $LIGC  
  CCT                          
                               
  $END                         
 FOUND BASIS SET  $LIGH  
  CCT                          
                               
  $END                         
    5 UNIQUE ATOM CUSTOMIZED BASIS SETS WERE FOUND.

     SEARCHING FOR $MCP
     $MCP GROUP NOT FOUND


     RUN TITLE
     ---------
                                                                                 

 THE POINT GROUP OF THE MOLECULE IS C1      
 THE ORDER OF THE PRINCIPAL AXIS IS     0

 ATOM      ATOMIC                      COORDINATES (BOHR)
           CHARGE         X                   Y                   Z
 LA         57.0     0.5940353642        1.6634879925       -7.6134603402
 P          15.0    -0.8243047097        0.9448390856       -0.6106970929
 O           8.0    -0.1892182632        1.2666266378       -3.7463061816
 C           6.0    -3.7158795185        2.5424009882       -0.0642650524
 C           6.0     1.7387088462        2.3528879371        1.0203918631
 C           6.0    -1.0545186595       -2.3444090126       -0.0275932752
 H           1.0    -3.5509654384        4.5507368903       -0.4852268794
 H           1.0    -4.1337190888        2.3406874793        1.9529510602
 H           1.0    -5.2563585348        1.6828363599       -1.1253079430
 H           1.0     3.5066362025        1.3782556634        0.6175311009
 H           1.0     1.3393649799        2.1506980221        3.0413199170
 H           1.0     1.8817540343        4.3619558330        0.5949841839
 H           1.0     0.7245821508       -3.3002012567       -0.4264120485
 H           1.0    -2.6058117708       -3.1844149975       -1.0885382466
 H           1.0    -1.4631587307       -2.5626569447        1.9898094636

          INTERNUCLEAR DISTANCES (ANGS.)
          ------------------------------

                1 LA         2 P          3 O          4 C          5 C     

   1 LA      0.0000000    3.8000247    2.0984975 *  4.6235135    4.6232334  
   2 P       3.8000247    0.0000000    1.7015272 *  1.7719140 *  1.7719215 *
   3 O       2.0984975 *  1.7015272 *  0.0000000    2.7811961 *  2.7809902 *
   4 C       4.6235135    1.7719140 *  2.7811961 *  0.0000000    2.9446672 *
   5 C       4.6232334    1.7719215 *  2.7809902 *  2.9446672 *  0.0000000  
   6 C       4.6231545    1.7719271 *  2.7809334 *  2.9446752 *  2.9446701 *
   7 H       4.6232333    2.3931991 *  3.0270309    1.0893623 *  3.1341450  
   8 H       5.6581518    2.3351596 *  3.7115749    1.0953380 *  3.1465017  
   9 H       4.6230714    2.3931783 *  3.0269111    1.0893521 *  3.8880653  
  10 H       4.6227751    2.3932297 *  3.0267309    3.8880959    1.0893563 *
  11 H       5.6579228    2.3351526 *  3.7114161    3.1464287    1.0953466 *
  12 H       4.6229171    2.3932101 *  3.0268194    3.1341811    1.0893583 *
  13 H       4.6226265    2.3932259 *  3.0266277    3.8880972    3.1341910  
  14 H       4.6228348    2.3931943 *  3.0267563    3.1341327    3.8880727  
  15 H       5.6578710    2.3351829 *  3.7113913    3.1465179    3.1464609  

                6 C          7 H          8 H          9 H         10 H     

   1 LA      4.6231545    4.6232333    5.6581518    4.6230714    4.6227751  
   2 P       1.7719271 *  2.3931991 *  2.3351596 *  2.3931783 *  2.3932297 *
   3 O       2.7809334 *  3.0270309    3.7115749    3.0269111    3.0267309  
   4 C       2.9446752 *  1.0893623 *  1.0953380 *  1.0893521 *  3.8880959  
   5 C       2.9446701 *  3.1341450    3.1465017    3.8880653    1.0893563 *
   6 C       0.0000000    3.8880922    3.1464543    3.1341923    3.1341660  
   7 H       3.8880922    0.0000000    1.7684841 *  1.7978732 *  4.1360696  
   8 H       3.1464543    1.7684841 *  0.0000000    1.7684947 *  4.1358732  
   9 H       3.1341923    1.7978732 *  1.7684947 *  0.0000000    4.7307479  
  10 H       3.1341660    4.1360696    4.1358732    4.7307479    0.0000000  
  11 H       3.1464870    3.4340322    2.9546526 *  4.1358258    1.7684724 *
  12 H       3.8880893    2.9328517 *  3.4341735    4.1360454    1.7978961 *
  13 H       1.0893593 *  4.7307675    4.1358540    4.1360803    2.9328835 *
  14 H       1.0893502 *  4.1360500    3.4340267    2.9328494 *  4.1360765  
  15 H       1.0953500 *  4.1358888    2.9546880 *  3.4342150    3.4340628  

               11 H         12 H         13 H         14 H         15 H     

   1 LA      5.6579228    4.6229171    4.6226265    4.6228348    5.6578710  
   2 P       2.3351526 *  2.3932101 *  2.3932259 *  2.3931943 *  2.3351829 *
   3 O       3.7114161    3.0268194    3.0266277    3.0267563    3.7113913  
   4 C       3.1464287    3.1341811    3.8880972    3.1341327    3.1465179  
   5 C       1.0953466 *  1.0893583 *  3.1341910    3.8880727    3.1464609  
   6 C       3.1464870    3.8880893    1.0893593 *  1.0893502 *  1.0953500 *
   7 H       3.4340322    2.9328517 *  4.7307675    4.1360500    4.1358888  
   8 H       2.9546526 *  3.4341735    4.1358540    3.4340267    2.9546880 *
   9 H       4.1358258    4.1360454    4.1360803    2.9328494 *  3.4342150  
  10 H       1.7684724 *  1.7978961 *  2.9328835 *  4.1360765    3.4340628  
  11 H       0.0000000    1.7684662 *  3.4341698    4.1358369    2.9546638 *
  12 H       1.7684662 *  0.0000000    4.1360864    4.7307442    4.1358593  
  13 H       3.4341698    4.1360864    0.0000000    1.7979058 *  1.7684584 *
  14 H       4.1358369    4.7307442    1.7979058 *  0.0000000    1.7684708 *
  15 H       2.9546638 *  4.1358593    1.7684584 *  1.7684708 *  0.0000000  

  * ... LESS THAN  3.000


     ATOMIC BASIS SET
     ----------------
 THE CONTRACTED PRIMITIVE FUNCTIONS HAVE BEEN UNNORMALIZED
 THE CONTRACTED BASIS FUNCTIONS ARE NOW NORMALIZED TO UNITY

  SHELL TYPE  PRIMITIVE        EXPONENT          CONTRACTION COEFFICIENT(S)

 LA        

      1   L       1             9.1730000   -0.054833023521   -0.009797991527
      1   L       2             3.1200000    0.676604290237    0.231261800020
      1   L       3             2.1040000   -1.034429443730   -0.601214480110
      1   L       4             1.3200000   -0.518907222591    0.195188831214
      1   L       5             0.4960000    1.631603699894    1.076136069429

      2   D       6             1.2380000   -0.053797021791
      2   D       7             0.6061000    0.380144153981
      2   D       8             0.2518000    0.720349291785

      3   D       9             0.0978700    1.000000000000

      4   L      10             0.6182000   -0.107095028128   -0.051868986063
      4   L      11             0.0454600    1.033448271434    1.008107729120

      5   L      12             0.0177500    1.000000000000    1.000000000000

      6   L      13             0.2004000    1.000000000000    1.000000000000

      7   D      14             0.0353600    1.000000000000

 P         

      8   S      15        312400.0000000    0.000057689641
      8   S      16         46800.0000000    0.000448246591
      8   S      17         10650.0000000    0.002349131061
      8   S      18          3018.0000000    0.009781571802
      8   S      19           986.8000000    0.034142936511
      8   S      20           357.4000000    0.100192955985
      8   S      21           139.6000000    0.234346168617
      8   S      22            57.6300000    0.382391849918
      8   S      23            24.6000000    0.318052941833
      8   S      24            10.1200000    0.070770999093
      8   S      25             4.2830000   -0.001817789630
      8   S      26             1.8050000    0.002161561737
      8   S      27             0.2782000    0.000432249354

      9   S      28        312400.0000000   -0.000016380204
      9   S      29         46800.0000000   -0.000127233535
      9   S      30         10650.0000000   -0.000668625166
      9   S      31          3018.0000000   -0.002795303744
      9   S      32           986.8000000   -0.009928227435
      9   S      33           357.4000000   -0.030244566456
      9   S      34           139.6000000   -0.077884705328
      9   S      35            57.6300000   -0.156724571545
      9   S      36            24.6000000   -0.198042753651
      9   S      37            10.1200000    0.037971251521
      9   S      38             4.2830000    0.552751544147
      9   S      39             1.8050000    0.542611452452
      9   S      40             0.2782000   -0.009675942874

     10   S      41        312400.0000000    0.000006865735
     10   S      42         46800.0000000    0.000053281983
     10   S      43         10650.0000000    0.000280421002
     10   S      44          3018.0000000    0.001170789768
     10   S      45           986.8000000    0.004173591138
     10   S      46           357.4000000    0.012720496749
     10   S      47           139.6000000    0.033152766352
     10   S      48            57.6300000    0.067671246836
     10   S      49            24.6000000    0.089831018862
     10   S      50            10.1200000   -0.020305232360
     10   S      51             4.2830000   -0.313280408979
     10   S      52             1.8050000   -0.563687905527
     10   S      53             0.2782000    1.117494073734

     11   S      54             0.6158000    1.000000000000

     12   S      55             0.1055000    1.000000000000

     13   P      56           504.9000000    0.002433660431
     13   P      57           119.4000000    0.019305559477
     13   P      58            37.9600000    0.088473106893
     13   P      59            13.9500000    0.254701981099
     13   P      60             5.4570000    0.440199242653
     13   P      61             2.1770000    0.383632006272
     13   P      62             0.2877000   -0.003946337074

     14   P      63           504.9000000   -0.000954298933
     14   P      64           119.4000000   -0.007664025747
     14   P      65            37.9600000   -0.035465925259
     14   P      66            13.9500000   -0.106164716437
     14   P      67             5.4570000   -0.187210586037
     14   P      68             2.1770000   -0.181495819791
     14   P      69             0.2877000    0.991672644618

     15   P      70             0.8010000    1.000000000000

     16   P      71             0.0971400    1.000000000000

     17   D      72             0.6480000    1.000000000000

     18   D      73             0.2180000    1.000000000000

     19   F      74             0.4520000    1.000000000000

     20   D      75             3.1200000    1.000000000000

 O         

     21   S      76         15330.0000000    0.000520198307
     21   S      77          2299.0000000    0.004023344781
     21   S      78           522.4000000    0.020729083329
     21   S      79           147.3000000    0.081082327080
     21   S      80            47.5500000    0.236226352118
     21   S      81            16.7600000    0.443518209420
     21   S      82             6.2070000    0.358670588689
     21   S      83             0.6882000   -0.008349797237

     22   S      84         15330.0000000   -0.000197236012
     22   S      85          2299.0000000   -0.001535010700
     22   S      86           522.4000000   -0.007951183914
     22   S      87           147.3000000   -0.032113452892
     22   S      88            47.5500000   -0.100269643049
     22   S      89            16.7600000   -0.234047111838
     22   S      90             6.2070000   -0.301410927756
     22   S      91             0.6882000    1.034919649508

     23   S      92             1.7520000    1.000000000000

     24   S      93             0.2384000    1.000000000000

     25   P      94            34.4600000    0.041163489568
     25   P      95             7.7490000    0.257762835858
     25   P      96             2.2800000    0.802419274427

     26   P      97             0.7156000    1.000000000000

     27   P      98             0.2140000    1.000000000000

     28   D      99             2.3140000    1.000000000000

     29   D     100             0.6450000    1.000000000000

     30   F     101             1.4280000    1.000000000000

 C         

     31   S     102          8236.0000000    0.000542430189
     31   S     103          1235.0000000    0.004196427901
     31   S     104           280.8000000    0.021540914108
     31   S     105            79.2700000    0.083614949614
     31   S     106            25.5900000    0.239871618922
     31   S     107             8.9970000    0.443751820060
     31   S     108             3.3190000    0.353579696469
     31   S     109             0.3643000   -0.009176366076

     32   S     110          8236.0000000   -0.000196392234
     32   S     111          1235.0000000   -0.001525950274
     32   S     112           280.8000000   -0.007890449028
     32   S     113            79.2700000   -0.031514870532
     32   S     114            25.5900000   -0.096910008320
     32   S     115             8.9970000   -0.220541526288
     32   S     116             3.3190000   -0.296069112937
     32   S     117             0.3643000    1.040503432950

     33   S     118             0.9059000    1.000000000000

     34   S     119             0.1285000    1.000000000000

     35   P     120            18.7100000    0.039426387165
     35   P     121             4.1330000    0.244088984924
     35   P     122             1.2000000    0.815492008943

     36   P     123             0.3827000    1.000000000000

     37   P     124             0.1209000    1.000000000000

     38   D     125             1.0970000    1.000000000000

     39   D     126             0.3180000    1.000000000000

     40   F     127             0.7610000    1.000000000000

 C         

     41   S     128          8236.0000000    0.000542430189
     41   S     129          1235.0000000    0.004196427901
     41   S     130           280.8000000    0.021540914108
     41   S     131            79.2700000    0.083614949614
     41   S     132            25.5900000    0.239871618922
     41   S     133             8.9970000    0.443751820060
     41   S     134             3.3190000    0.353579696469
     41   S     135             0.3643000   -0.009176366076

     42   S     136          8236.0000000   -0.000196392234
     42   S     137          1235.0000000   -0.001525950274
     42   S     138           280.8000000   -0.007890449028
     42   S     139            79.2700000   -0.031514870532
     42   S     140            25.5900000   -0.096910008320
     42   S     141             8.9970000   -0.220541526288
     42   S     142             3.3190000   -0.296069112937
     42   S     143             0.3643000    1.040503432950

     43   S     144             0.9059000    1.000000000000

     44   S     145             0.1285000    1.000000000000

     45   P     146            18.7100000    0.039426387165
     45   P     147             4.1330000    0.244088984924
     45   P     148             1.2000000    0.815492008943

     46   P     149             0.3827000    1.000000000000

     47   P     150             0.1209000    1.000000000000

     48   D     151             1.0970000    1.000000000000

     49   D     152             0.3180000    1.000000000000

     50   F     153             0.7610000    1.000000000000

 C         

     51   S     154          8236.0000000    0.000542430189
     51   S     155          1235.0000000    0.004196427901
     51   S     156           280.8000000    0.021540914108
     51   S     157            79.2700000    0.083614949614
     51   S     158            25.5900000    0.239871618922
     51   S     159             8.9970000    0.443751820060
     51   S     160             3.3190000    0.353579696469
     51   S     161             0.3643000   -0.009176366076

     52   S     162          8236.0000000   -0.000196392234
     52   S     163          1235.0000000   -0.001525950274
     52   S     164           280.8000000   -0.007890449028
     52   S     165            79.2700000   -0.031514870532
     52   S     166            25.5900000   -0.096910008320
     52   S     167             8.9970000   -0.220541526288
     52   S     168             3.3190000   -0.296069112937
     52   S     169             0.3643000    1.040503432950

     53   S     170             0.9059000    1.000000000000

     54   S     171             0.1285000    1.000000000000

     55   P     172            18.7100000    0.039426387165
     55   P     173             4.1330000    0.244088984924
     55   P     174             1.2000000    0.815492008943

     56   P     175             0.3827000    1.000000000000

     57   P     176             0.1209000    1.000000000000

     58   D     177             1.0970000    1.000000000000

     59   D     178             0.3180000    1.000000000000

     60   F     179             0.7610000    1.000000000000

 H         

     61   S     180            33.8700000    0.025494863235
     61   S     181             5.0950000    0.190362765893
     61   S     182             1.1590000    0.852162022245

     62   S     183             0.3258000    1.000000000000

     63   S     184             0.1027000    1.000000000000

     64   P     185             1.4070000    1.000000000000

     65   P     186             0.3880000    1.000000000000

     66   D     187             1.0570000    1.000000000000

 H         

     67   S     188            33.8700000    0.025494863235
     67   S     189             5.0950000    0.190362765893
     67   S     190             1.1590000    0.852162022245

     68   S     191             0.3258000    1.000000000000

     69   S     192             0.1027000    1.000000000000

     70   P     193             1.4070000    1.000000000000

     71   P     194             0.3880000    1.000000000000

     72   D     195             1.0570000    1.000000000000

 H         

     73   S     196            33.8700000    0.025494863235
     73   S     197             5.0950000    0.190362765893
     73   S     198             1.1590000    0.852162022245

     74   S     199             0.3258000    1.000000000000

     75   S     200             0.1027000    1.000000000000

     76   P     201             1.4070000    1.000000000000

     77   P     202             0.3880000    1.000000000000

     78   D     203             1.0570000    1.000000000000

 H         

     79   S     204            33.8700000    0.025494863235
     79   S     205             5.0950000    0.190362765893
     79   S     206             1.1590000    0.852162022245

     80   S     207             0.3258000    1.000000000000

     81   S     208             0.1027000    1.000000000000

     82   P     209             1.4070000    1.000000000000

     83   P     210             0.3880000    1.000000000000

     84   D     211             1.0570000    1.000000000000

 H         

     85   S     212            33.8700000    0.025494863235
     85   S     213             5.0950000    0.190362765893
     85   S     214             1.1590000    0.852162022245

     86   S     215             0.3258000    1.000000000000

     87   S     216             0.1027000    1.000000000000

     88   P     217             1.4070000    1.000000000000

     89   P     218             0.3880000    1.000000000000

     90   D     219             1.0570000    1.000000000000

 H         

     91   S     220            33.8700000    0.025494863235
     91   S     221             5.0950000    0.190362765893
     91   S     222             1.1590000    0.852162022245

     92   S     223             0.3258000    1.000000000000

     93   S     224             0.1027000    1.000000000000

     94   P     225             1.4070000    1.000000000000

     95   P     226             0.3880000    1.000000000000

     96   D     227             1.0570000    1.000000000000

 H         

     97   S     228            33.8700000    0.025494863235
     97   S     229             5.0950000    0.190362765893
     97   S     230             1.1590000    0.852162022245

     98   S     231             0.3258000    1.000000000000

     99   S     232             0.1027000    1.000000000000

    100   P     233             1.4070000    1.000000000000

    101   P     234             0.3880000    1.000000000000

    102   D     235             1.0570000    1.000000000000

 H         

    103   S     236            33.8700000    0.025494863235
    103   S     237             5.0950000    0.190362765893
    103   S     238             1.1590000    0.852162022245

    104   S     239             0.3258000    1.000000000000

    105   S     240             0.1027000    1.000000000000

    106   P     241             1.4070000    1.000000000000

    107   P     242             0.3880000    1.000000000000

    108   D     243             1.0570000    1.000000000000

 H         

    109   S     244            33.8700000    0.025494863235
    109   S     245             5.0950000    0.190362765893
    109   S     246             1.1590000    0.852162022245

    110   S     247             0.3258000    1.000000000000

    111   S     248             0.1027000    1.000000000000

    112   P     249             1.4070000    1.000000000000

    113   P     250             0.3880000    1.000000000000

    114   D     251             1.0570000    1.000000000000

 TOTAL NUMBER OF BASIS SET SHELLS             =  114
 NUMBER OF CARTESIAN GAUSSIAN BASIS FUNCTIONS =  354
 NOTE: THIS RUN WILL RESTRICT THE MO VARIATION SPACE TO SPHERICAL HARMONICS.
 THE NUMBER OF ORBITALS KEPT IN THE VARIATIONAL SPACE WILL BE PRINTED LATER.
 NUMBER OF ELECTRONS                          =  104
 CHARGE OF MOLECULE                           =    3
 SPIN MULTIPLICITY                            =    1
 NUMBER OF OCCUPIED ORBITALS (ALPHA)          =   52
 NUMBER OF OCCUPIED ORBITALS (BETA )          =   52
 TOTAL NUMBER OF ATOMS                        =   15
 THE NUCLEAR REPULSION ENERGY IS      663.0733600089
 NOTE THIS RUN IS USING CORE POTENTIALS, AND THE NUMBER OF ELECTRONS,
 OCCUPIED ORBITALS, AND NUCLEAR REPULSION ENERGY WILL BE ADJUSTED BELOW
 AFTER REMOVAL OF THE CORE CHARGES.

     $CONTRL OPTIONS
     ---------------
 SCFTYP=RHF          RUNTYP=OPTIMIZE     EXETYP=RUN     
 MPLEVL=       2     CITYP =NONE         CCTYP =NONE         VBTYP =NONE    
 DFTTYP=NONE         TDDFT =NONE    
 MULT  =       1     ICHARG=       3     NZVAR =       0     COORD =UNIQUE  
 PP    =READ         RELWFN=NONE         LOCAL =NONE         NUMGRD=       F
 ISPHER=       1     NOSYM =       0     MAXIT =     200     UNITS =ANGS    
 PLTORB=       F     MOLPLT=       F     AIMPAC=       F     FRIEND=        
 NPRINT=       7     IREST =       0     GEOM  =INPUT   
 NORMF =       0     NORMP =       0     ITOL  =      20     ICUT  =      11
 INTTYP=BEST         GRDTYP=BEST         QMTTOL= 1.0E-06

     $SYSTEM OPTIONS
     ---------------
  REPLICATED MEMORY=   300000000 WORDS (ON EVERY NODE).
 DISTRIBUTED MEMDDI=         300 MILLION WORDS IN AGGREGATE,
 MEMDDI DISTRIBUTED OVER  16 PROCESSORS IS    18750000 WORDS/PROCESSOR.
 TOTAL MEMORY REQUESTED ON EACH PROCESSOR=   318750000 WORDS.
 TIMLIM=      525600.00 MINUTES, OR     365.0 DAYS.
 PARALL= T  BALTYP=  DLB     KDIAG=    0  COREFL= F
 MXSEQ2=     300 MXSEQ3=     150  mem10=         0

          --------------
          ECP POTENTIALS
          --------------

 PARAMETERS FOR "LA-ECP  " ON ATOM    1 WITH ZCORE  46 AND LMAX  4 ARE
 FOR L= 4      COEFF    N           ZETA
    1       -2.85665    1        1.42345
 FOR L= 0      COEFF    N           ZETA
    1        8.85347    0       22.29739
    2      -68.41778    2        1.64320
    3      110.12463    2        1.85122
 FOR L= 1      COEFF    N           ZETA
    1        2.98675    0        1.77635
    2      -35.51815    2        3.98941
    3       53.65423    2        2.47524
 FOR L= 2      COEFF    N           ZETA
    1        1.67298    0        1.52169
    2       18.46625    2        1.52182
 FOR L= 3      COEFF    N           ZETA
    1       -4.64430    1        2.67762
    2      -14.43101    1       10.06608

 THE ECP RUN REMOVES   46 CORE ELECTRONS, AND THE SAME NUMBER OF PROTONS.
 NUMBER OF ELECTRONS KEPT IN THE CALCULATION IS =   58
 NUMBER OF OCCUPIED ORBITALS (ALPHA) KEPT IS    =   29
 NUMBER OF OCCUPIED ORBITALS (BETA ) KEPT IS    =   29
 THE ADJUSTED NUCLEAR REPULSION ENERGY=      334.9161799354
          ECP ANGULAR INTS.........     0.02 SECONDS

          ----------------
          PROPERTIES INPUT
          ----------------

     MOMENTS            FIELD           POTENTIAL          DENSITY
 IEMOM =       1   IEFLD =       0   IEPOT =       0   IEDEN =       0
 WHERE =COMASS     WHERE =NUCLEI     WHERE =NUCLEI     WHERE =NUCLEI  
 OUTPUT=BOTH       OUTPUT=BOTH       OUTPUT=BOTH       OUTPUT=BOTH    
 IEMINT=       0   IEFINT=       0                     IEDINT=       0
                                                       MORB  =       0
          EXTRAPOLATION IN EFFECT
          SOSCF IN EFFECT
 ORBITAL PRINTING OPTION: NPREO=     1   354     2     1

     -------------------------------
     INTEGRAL TRANSFORMATION OPTIONS
     -------------------------------
     NWORD  =            0
     CUTOFF = 1.0E-09     MPTRAN =       0
     DIRTRF =       T     AOINTS =DUP     

          ----------------------
          INTEGRAL INPUT OPTIONS
          ----------------------
 NOPK  =       1 NORDER=       0 SCHWRZ=       T

          -----------------------
          MP2 CONTROL INFORMATION
          -----------------------
          NACORE =       13  NBCORE =       13
          LMOMP2 =        F  AOINTS = DUP     
          METHOD =        2  NWORD  =               0
          MP2PRP =        F  OSPT   = NONE    
          CUTOFF = 1.00E-09  CPHFBS = BASISAO 
          CODE   = DDI     

          NUMBER OF CORE -A-  ORBITALS =    13
          NUMBER OF CORE -B-  ORBITALS =    13
          NUMBER OF OCC. -A-  ORBITALS =    29
          NUMBER OF OCC. -B-  ORBITALS =    29
          NUMBER OF MOLECULAR ORBITALS =   354
          NUMBER OF   BASIS  FUNCTIONS =   354


     ------------------------------------------
     THE POINT GROUP IS C1 , NAXIS= 0, ORDER= 1
     ------------------------------------------

 -- VARIATIONAL SPACE WILL BE RESTRICTED TO PURE SPHERICAL HARMONICS ONLY --
 AFTER EXCLUDING CONTAMINANT COMBINATIONS FROM THE CARTESIAN GAUSSIAN BASIS
 SET, THE NUMBER OF SPHERICAL HARMONICS KEPT IN THE VARIATION SPACE IS  316

     DIMENSIONS OF THE SYMMETRY SUBSPACES ARE
 A   =  316

 ..... DONE SETTING UP THE RUN .....
 CPU     0: STEP CPU TIME=     0.08 TOTAL CPU TIME=        0.1 (    0.0 MIN)
 TOTAL WALL CLOCK TIME=        0.2 SECONDS, CPU UTILIZATION IS  47.06%


          -----------------------------
          STATIONARY POINT LOCATION RUN
          -----------------------------

 OBTAINING INITIAL HESSIAN, HESS=GUESS   
 CARTESIAN COORDINATE OPTIMIZATION USING BADGER'S RULE FORCE CONSTANT GUESS

          PARAMETERS CONTROLLING GEOMETRY SEARCH ARE
          METHOD =QA                  UPHESS =BFGS    
          NNEG   =         0          NFRZ   =         0
          NSTEP  =        50          IFOLOW =         1
          HESS   =GUESS               RESTAR =         F
          IHREP  =         0          HSSEND =         F
          NPRT   =         0          NPUN   =         0
          OPTTOL = 1.000E-04          RMIN   = 1.500E-03
          RMAX   = 1.000E-01          RLIM   = 7.000E-02
          DXMAX  = 3.000E-01          PURIFY =         F
          MOVIE  =         F          TRUPD  =         T
          TRMAX  = 5.000E-01          TRMIN  = 5.000E-02
          ITBMAT =         5          STPT   =         F
          STSTEP = 1.000E-02          PROJCT=          T

 BEGINNING GEOMETRY SEARCH POINT NSERCH=   0 ...

 COORDINATES OF ALL ATOMS ARE (ANGS)
   ATOM   CHARGE       X              Y              Z
 ------------------------------------------------------------
 LA         57.0   0.3143500000   0.8802800000  -4.0288700000
 P          15.0  -0.4362032988   0.4999873483  -0.3231670077
 O           8.0  -0.1001300000   0.6702700000  -1.9824600000
 C           6.0  -1.9663589021   1.3453807614  -0.0340076037
 C           6.0   0.9200851645   1.2450947663   0.5399681593
 C           6.0  -0.5580272835  -1.2406079124  -0.0146017335
 H           1.0  -1.8790901228   2.4081464296  -0.2567710253
 H           1.0  -2.1874700965   1.2386385616   1.0334572699
 H           1.0  -2.7815453505   0.8905187159  -0.5954873618
 H           1.0   1.8556320997   0.7293415407   0.3267834093
 H           1.0   0.7087614758   1.1381004633   1.6093973077
 H           1.0   0.9957814236   2.3082477890   0.3148520938
 H           1.0   0.3834323894  -1.7463914230  -0.2256475549
 H           1.0  -1.3789363049  -1.6851199688  -0.5760296750
 H           1.0  -0.7742703123  -1.3560997527   1.0529618984

          ********************
          1 ELECTRON INTEGRALS
          ********************
 TIME TO DO ORDINARY INTEGRALS=      0.02
 TIME TO DO      ECP INTEGRALS=      0.05
 ...... END OF ONE-ELECTRON INTEGRALS ......
 CPU     0: STEP CPU TIME=     0.07 TOTAL CPU TIME=        0.2 (    0.0 MIN)
 TOTAL WALL CLOCK TIME=        0.3 SECONDS, CPU UTILIZATION IS  53.57%

          -------------
          GUESS OPTIONS
          -------------
          GUESS =HUCKEL            NORB  =       0          NORDER=       0
          MIX   =       F          PRTMO =       F          PUNMO =       F
          TOLZ  = 1.0E-08          TOLE  = 1.0E-05
          SYMDEN=       F          PURIFY=       F

 INITIAL GUESS ORBITALS GENERATED BY HUCKEL   ROUTINE.
 HUCKEL GUESS REQUIRES    916545 WORDS.

 STATISTICS FOR GENERATION OF SYMMETRY ORBITAL -Q- MATRIX
 NUMBER OF CARTESIAN ATOMIC ORBITALS=        354
 NUMBER OF SPHERICAL CONTAMINANTS DROPPED=    38
 NUMBER OF LINEARLY DEPENDENT MOS DROPPED=     0
 TOTAL NUMBER OF MOS IN VARIATION SPACE=     316

 SYMMETRIES FOR INITIAL GUESS ORBITALS FOLLOW.   BOTH SET(S).
    29 ORBITALS ARE OCCUPIED (   13 CORE ORBITALS).
    14=A       15=A       16=A       17=A       18=A       19=A       20=A   
    21=A       22=A       23=A       24=A       25=A       26=A       27=A   
    28=A       29=A       30=A       31=A       32=A       33=A       34=A   
    35=A       36=A       37=A       38=A       39=A   
 ...... END OF INITIAL ORBITAL SELECTION ......
 CPU     0: STEP CPU TIME=     0.22 TOTAL CPU TIME=        0.4 (    0.0 MIN)
 TOTAL WALL CLOCK TIME=        0.8 SECONDS, CPU UTILIZATION IS  48.68%

                    ----------------------
                    AO INTEGRAL TECHNOLOGY
                    ----------------------
     S,P,L SHELL ROTATED AXIS INTEGRALS, REPROGRAMMED BY
        KAZUYA ISHIMURA (IMS) AND JOSE SIERRA (SYNSTAR).
     S,P,D,L SHELL ROTATED AXIS INTEGRALS PROGRAMMED BY
        KAZUYA ISHIMURA (INSTITUTE FOR MOLECULAR SCIENCE).
     S,P,D,F,G SHELL TO TOTAL QUARTET ANGULAR MOMENTUM SUM 5,
        ERIC PROGRAM BY GRAHAM FLETCHER (ELORET AND NASA ADVANCED
        SUPERCOMPUTING DIVISION, AMES RESEARCH CENTER).
     S,P,D,F,G,L SHELL GENERAL RYS QUADRATURE PROGRAMMED BY
        MICHEL DUPUIS (PACIFIC NORTHWEST NATIONAL LABORATORY).

          --------------------
          2 ELECTRON INTEGRALS
          --------------------

 DIRECT SCF METHOD SKIPS INTEGRAL STORAGE ON DISK.
 DIRECT TRANSFORMATION SKIPS AO INTEGRAL STORAGE ON DISK.
  ...... END OF TWO-ELECTRON INTEGRALS .....
 CPU     0: STEP CPU TIME=     0.01 TOTAL CPU TIME=        0.4 (    0.0 MIN)
 TOTAL WALL CLOCK TIME=        0.8 SECONDS, CPU UTILIZATION IS  48.10%

          --------------------------
                 RHF SCF CALCULATION
          --------------------------

     NUCLEAR ENERGY =       334.9161799354
     MAXIT =  200     NPUNCH=    2
     EXTRAP=T  DAMP=F  SHIFT=F  RSTRCT=F  DIIS=F  DEM=F  SOSCF=T
     DENSITY MATRIX CONV=  2.00E-06
     SOSCF WILL OPTIMIZE    8323 ORBITAL ROTATIONS, SOGTOL=   0.250
     MEMORY REQUIRED FOR RHF ITERS=    982670 WORDS.

 DIRECT SCF CALCULATION, SCHWRZ=T   FDIFF=F,  DIRTHR=  0.00E+00 NITDIR=10
 SCHWARZ INEQUALITY OVERHEAD:     62136 INTEGRALS, T=        0.00

                                                                                   NONZERO     BLOCKS
 ITER EX DEM     TOTAL ENERGY        E CHANGE  DENSITY CHANGE     ORB. GRAD      INTEGRALS    SKIPPED
   1  0  0     -563.3639107052  -563.3639107052   0.369668872   0.000000000     1469158736    4165481
          ---------------START SECOND ORDER SCF---------------
   2  1  0     -564.4958798850    -1.1319691798   0.170312894   0.096700851     1455774018    4473390
   3  2  0     -564.6228934750    -0.1270135900   0.065800997   0.064126975     1454414765    4497321
   4  3  0     -564.7225423023    -0.0996488273   0.020586739   0.011484836     1454949555    4480454
   5  4  0     -564.7250797211    -0.0025374188   0.006554102   0.005798456     1455571122    4471615
   6  5  0     -564.7256949868    -0.0006152657   0.002806120   0.001145596     1455641542    4470171
   7  6  0     -564.7257459887    -0.0000510019   0.000931905   0.000271238     1455662485    4469894
   8  7  0     -564.7257505739    -0.0000045852   0.000337477   0.000076592     1455681874    4469761
   9  8  0     -564.7257509841    -0.0000004102   0.000114771   0.000022987     1455686205    4469726
  10  9  0     -564.7257510217    -0.0000000376   0.000037263   0.000008389     1455686936    4469775
  11 10  0     -564.7257510262    -0.0000000044   0.000012261   0.000003180     1455687738    4469775
  12 11  0     -564.7257510268    -0.0000000006   0.000004634   0.000001337     1455689433    4469767
  13 12  0     -564.7257510268    -0.0000000001   0.000001777   0.000000595     1455689567    4469761
  14 13  0     -564.7257510269    -0.0000000000   0.000000808   0.000000246     1455689342    4469760

          -----------------
          DENSITY CONVERGED
          -----------------
     TIME TO FORM FOCK OPERATORS=      91.4 SECONDS (       6.5 SEC/ITER)
     FOCK TIME ON FIRST ITERATION=       6.6, LAST ITERATION=       6.5
     TIME TO SOLVE SCF EQUATIONS=       0.5 SECONDS (       0.0 SEC/ITER)

 FINAL RHF ENERGY IS     -564.7257510269 AFTER  14 ITERATIONS

          ------------
          EIGENVECTORS
          ------------

                      1          2          3          4          5
                  -80.4710   -21.0449   -11.6324   -11.6324   -11.6324
                     A          A          A          A          A   
    1  LA 1  S    0.000004  -0.000019   0.000001   0.000000   0.000006
    2  LA 1  X   -0.000001   0.000001   0.000012  -0.000007  -0.000003
    3  LA 1  Y   -0.000001   0.000001  -0.000008  -0.000013   0.000001
    4  LA 1  Z    0.000005  -0.000006   0.000003  -0.000003   0.000007
    5  LA 1 XX    0.000004  -0.000011   0.000008   0.000007  -0.000003
    6  LA 1 YY    0.000004  -0.000012  -0.000005  -0.000011  -0.000000
    7  LA 1 ZZ   -0.000008   0.000023  -0.000002   0.000004   0.000003
    8  LA 1 XY   -0.000000   0.000001  -0.000010   0.000002   0.000002
    9  LA 1 XZ    0.000003  -0.000008  -0.000010   0.000008   0.000000
   10  LA 1 YZ    0.000001  -0.000004   0.000003   0.000010  -0.000001
   11  LA 1 XX    0.000001   0.000063  -0.000006  -0.000015   0.000038
   12  LA 1 YY    0.000001   0.000069   0.000016   0.000021   0.000037
   13  LA 1 ZZ   -0.000002  -0.000132  -0.000010  -0.000006  -0.000076
   14  LA 1 XY   -0.000000  -0.000005   0.000020  -0.000008  -0.000006
   15  LA 1 XZ    0.000001   0.000047   0.000013  -0.000009   0.000026
   16  LA 1 YZ    0.000000   0.000024   0.000002  -0.000009   0.000014
   17  LA 1  S   -0.000012  -0.000123  -0.000034  -0.000005  -0.000212
   18  LA 1  X   -0.000000   0.000020   0.000023  -0.000012   0.000010
   19  LA 1  Y   -0.000000   0.000010  -0.000011  -0.000021   0.000009
   20  LA 1  Z    0.000001  -0.000097  -0.000007  -0.000006  -0.000064
   21  LA 1  S    0.000005   0.000052   0.000055   0.000007   0.000337
   22  LA 1  X    0.000000  -0.000009  -0.000059   0.000027  -0.000048
   23  LA 1  Y    0.000000  -0.000005   0.000025   0.000050  -0.000034
   24  LA 1  Z   -0.000001   0.000044   0.000037   0.000017   0.000275
   25  LA 1  S   -0.000020  -0.000023  -0.000005  -0.000001  -0.000031
   26  LA 1  X    0.000006   0.000019  -0.000022   0.000014   0.000014
   27  LA 1  Y    0.000003   0.000009   0.000015   0.000024   0.000003
   28  LA 1  Z   -0.000027  -0.000092  -0.000012   0.000004  -0.000052
   29  LA 1 XX   -0.000001  -0.000014   0.000010   0.000006  -0.000075
   30  LA 1 YY   -0.000001  -0.000015  -0.000024  -0.000025  -0.000076
   31  LA 1 ZZ    0.000002   0.000029   0.000014   0.000019   0.000150
   32  LA 1 XY    0.000000   0.000001  -0.000018  -0.000001   0.000009
   33  LA 1 XZ   -0.000001  -0.000010  -0.000047   0.000024  -0.000048
   34  LA 1 YZ   -0.000000  -0.000005   0.000015   0.000038  -0.000031
   35  P  2  S    1.000138   0.000083   0.000023   0.000003   0.000140
   36  P  2  S    0.000178   0.000518   0.000163   0.000022   0.000999
   37  P  2  S    0.000193   0.000691   0.000252   0.000034   0.001549
   38  P  2  S   -0.000947  -0.000239  -0.000080  -0.000011  -0.000494
   39  P  2  S   -0.000348  -0.002542   0.000037   0.000005   0.000225
   40  P  2  X    0.000017   0.000029  -0.000515   0.000289   0.000030
   41  P  2  Y    0.000009   0.000015   0.000296   0.000514  -0.000083
   42  P  2  Z   -0.000084  -0.000144  -0.000035   0.000117   0.000236
   43  P  2  X    0.000016   0.000082  -0.001349   0.000758   0.000084
   44  P  2  Y    0.000008   0.000042   0.000775   0.001347  -0.000216
   45  P  2  Z   -0.000081  -0.000406  -0.000095   0.000305   0.000596
   46  P  2  X   -0.000009  -0.000027   0.000061  -0.000034   0.000000
   47  P  2  Y   -0.000004  -0.000014  -0.000035  -0.000061   0.000012
   48  P  2  Z    0.000043   0.000134   0.000001  -0.000014  -0.000046
   49  P  2  X    0.000017  -0.000253   0.000014  -0.000018  -0.000093
   50  P  2  Y    0.000009  -0.000128  -0.000024  -0.000029  -0.000042
   51  P  2  Z   -0.000085   0.001248   0.000075   0.000004   0.000437
   52  P  2 XX   -0.000003  -0.000080   0.000149   0.000180   0.000024
   53  P  2 YY   -0.000003  -0.000088  -0.000098  -0.000231   0.000078
   54  P  2 ZZ    0.000007   0.000167  -0.000050   0.000051  -0.000102
   55  P  2 XY    0.000000   0.000006  -0.000238   0.000086   0.000033
   56  P  2 XZ   -0.000002  -0.000060  -0.000104   0.000119   0.000054
   57  P  2 YZ   -0.000001  -0.000031   0.000012   0.000111   0.000016
   58  P  2 XX   -0.000025  -0.000091   0.000323   0.000234   0.000201
   59  P  2 YY   -0.000028  -0.000100  -0.000138  -0.000379   0.000315
   60  P  2 ZZ    0.000053   0.000190  -0.000185   0.000145  -0.000515
   61  P  2 XY    0.000002   0.000007  -0.000364   0.000076   0.000037
   62  P  2 XZ   -0.000019  -0.000069  -0.000331   0.000289   0.000243
   63  P  2 YZ   -0.000010  -0.000035   0.000152   0.000368   0.000066
   64  P  2 XXX  -0.000004  -0.000079  -0.000035   0.000010  -0.000021
   65  P  2 YYY  -0.000003   0.000063   0.000008   0.000034  -0.000085
   66  P  2 ZZZ  -0.000013  -0.000233   0.000003  -0.000029  -0.000090
   67  P  2 XXY   0.000001  -0.000149   0.000027   0.000009   0.000077
   68  P  2 XXZ   0.000008   0.000128  -0.000016   0.000031   0.000068
   69  P  2 YYX  -0.000002  -0.000023  -0.000016   0.000006  -0.000018
   70  P  2 YYZ   0.000010   0.000185   0.000011   0.000008   0.000054
   71  P  2 ZZX   0.000008   0.000129   0.000063  -0.000020   0.000047
   72  P  2 ZZY   0.000004   0.000065  -0.000038  -0.000055   0.000037
   73  P  2 XYZ  -0.000001  -0.000050  -0.000009   0.000028   0.000012
   74  P  2 XX    0.000001   0.000024  -0.000002  -0.000004   0.000002
   75  P  2 YY    0.000001   0.000026   0.000003   0.000005   0.000001
   76  P  2 ZZ   -0.000002  -0.000050  -0.000000  -0.000001  -0.000004
   77  P  2 XY   -0.000000  -0.000002   0.000005  -0.000002  -0.000001
   78  P  2 XZ    0.000001   0.000018   0.000002  -0.000002   0.000001
   79  P  2 YZ    0.000000   0.000009   0.000000  -0.000001   0.000001
   80  O  3  S   -0.000001   0.975626   0.000008   0.000001   0.000047
   81  O  3  S   -0.000001  -0.001135   0.000011   0.000002   0.000069
   82  O  3  S    0.000005   0.043370  -0.000003  -0.000000  -0.000016
   83  O  3  S   -0.000082   0.004696   0.000039   0.000005   0.000240
   84  O  3  X    0.000000  -0.000115   0.000006  -0.000003   0.000003
   85  O  3  Y    0.000000  -0.000058  -0.000003  -0.000006   0.000002
   86  O  3  Z   -0.000000   0.000566  -0.000002  -0.000002  -0.000018
   87  O  3  X    0.000003   0.000129  -0.000017   0.000009  -0.000009
   88  O  3  Y    0.000002   0.000065   0.000008   0.000015  -0.000007
   89  O  3  Z   -0.000015  -0.000635   0.000007   0.000005   0.000055
   90  O  3  X    0.000018  -0.000128   0.000103  -0.000057   0.000005
   91  O  3  Y    0.000009  -0.000065  -0.000057  -0.000101   0.000022
   92  O  3  Z   -0.000090   0.000634  -0.000002  -0.000024  -0.000100
   93  O  3 XX    0.000000  -0.000015   0.000014   0.000012  -0.000005
   94  O  3 YY    0.000000  -0.000016  -0.000010  -0.000019  -0.000000
   95  O  3 ZZ   -0.000000   0.000031  -0.000004   0.000008   0.000005
   96  O  3 XY   -0.000000   0.000001  -0.000018   0.000004   0.000003
   97  O  3 XZ    0.000000  -0.000011  -0.000018   0.000014   0.000001
   98  O  3 YZ    0.000000  -0.000006   0.000006   0.000018  -0.000002
   99  O  3 XX    0.000007   0.000037  -0.000047  -0.000040   0.000018
  100  O  3 YY    0.000007   0.000040   0.000033   0.000067   0.000003
  101  O  3 ZZ   -0.000014  -0.000077   0.000014  -0.000027  -0.000021
  102  O  3 XY   -0.000001  -0.000003   0.000063  -0.000014  -0.000011
  103  O  3 XZ    0.000005   0.000028   0.000063  -0.000049  -0.000002
  104  O  3 YZ    0.000003   0.000014  -0.000022  -0.000062   0.000009
  105  O  3 XXX   0.000001  -0.000003  -0.000003   0.000008  -0.000001
  106  O  3 YYY   0.000000  -0.000000   0.000003   0.000004   0.000002
  107  O  3 ZZZ   0.000002  -0.000009   0.000004  -0.000007  -0.000004
  108  O  3 XXY  -0.000000  -0.000002  -0.000002   0.000005  -0.000003
  109  O  3 XXZ  -0.000001   0.000005  -0.000011  -0.000006   0.000004
  110  O  3 YYX   0.000000  -0.000001  -0.000007  -0.000000   0.000001
  111  O  3 YYZ  -0.000001   0.000007   0.000006   0.000015   0.000002
  112  O  3 ZZX  -0.000001   0.000005   0.000011  -0.000011   0.000000
  113  O  3 ZZY  -0.000001   0.000003  -0.000001  -0.000011   0.000001
  114  O  3 XYZ   0.000000  -0.000001   0.000012  -0.000002  -0.000003
  115  C  4  S   -0.000002  -0.000083   0.878888   0.030646   0.428890
  116  C  4  S   -0.000004  -0.000167   0.001517   0.000055   0.000848
  117  C  4  S    0.000001  -0.000019   0.037367   0.001303   0.018252
  118  C  4  S    0.000093   0.000172   0.006452   0.000208   0.002221
  119  C  4  X   -0.000001  -0.000018   0.000606   0.000007   0.000283
  120  C  4  Y    0.000001   0.000007  -0.000323  -0.000034  -0.000146
  121  C  4  Z    0.000001   0.000017  -0.000162  -0.000011  -0.000097
  122  C  4  X   -0.000025   0.000144  -0.001787   0.000131  -0.000728
  123  C  4  Y    0.000015  -0.000071   0.000924   0.000351   0.000328
  124  C  4  Z   -0.000001  -0.000064   0.000567   0.000094   0.000434
  125  C  4  X    0.000032   0.000150  -0.000126  -0.000138  -0.000279
  126  C  4  Y   -0.000018  -0.000043   0.000000  -0.000214   0.000171
  127  C  4  Z   -0.000005  -0.000206   0.000371  -0.000039  -0.000000
  128  C  4 XX   -0.000002   0.000002  -0.000151   0.000034  -0.000063
  129  C  4 YY    0.000000  -0.000012   0.000051  -0.000042   0.000042
  130  C  4 ZZ    0.000002   0.000010   0.000100   0.000008   0.000020
  131  C  4 XY    0.000003  -0.000013   0.000177   0.000029   0.000087
  132  C  4 XZ    0.000001  -0.000009   0.000076   0.000020   0.000057
  133  C  4 YZ   -0.000001  -0.000002  -0.000037   0.000007  -0.000018
  134  C  4 XX    0.000006   0.000098  -0.000562  -0.000394  -0.000322
  135  C  4 YY    0.000003   0.000005   0.000149   0.000468  -0.000133
  136  C  4 ZZ   -0.000009  -0.000103   0.000414  -0.000074   0.000455
  137  C  4 XY   -0.000002  -0.000083   0.000677  -0.000181   0.000214
  138  C  4 XZ   -0.000001  -0.000028   0.000242  -0.000218  -0.000038
  139  C  4 YZ    0.000003   0.000035  -0.000117  -0.000185  -0.000098
  140  C  4 XXX   0.000003  -0.000018   0.000062  -0.000035   0.000030
  141  C  4 YYY   0.000004   0.000023   0.000454   0.000022   0.000206
  142  C  4 ZZZ   0.000001   0.000006   0.000496   0.000019   0.000249
  143  C  4 XXY  -0.000009  -0.000017  -0.000317  -0.000017  -0.000136
  144  C  4 XXZ  -0.000002  -0.000034  -0.000312   0.000009  -0.000169
  145  C  4 YYX   0.000000  -0.000021   0.000125   0.000043   0.000049
  146  C  4 YYZ   0.000001   0.000026  -0.000353  -0.000034  -0.000166
  147  C  4 ZZX  -0.000005   0.000045  -0.000207   0.000004  -0.000089
  148  C  4 ZZY   0.000004  -0.000014  -0.000292  -0.000013  -0.000141
  149  C  4 XYZ   0.000003   0.000026  -0.000217   0.000016  -0.000078
  150  C  5  S   -0.000002  -0.000083  -0.321524   0.694672   0.609412
  151  C  5  S   -0.000004  -0.000167  -0.000529   0.001186   0.001156
  152  C  5  S    0.000001  -0.000019  -0.013666   0.029533   0.025927
  153  C  5  S    0.000093   0.000172  -0.002584   0.005207   0.003580
  154  C  5  X    0.000001   0.000010   0.000205  -0.000405  -0.000342
  155  C  5  Y    0.000001   0.000006   0.000087  -0.000239  -0.000184
  156  C  5  Z    0.000001   0.000023   0.000138  -0.000303  -0.000279
  157  C  5  X    0.000024  -0.000113  -0.000746   0.001105   0.000864
  158  C  5  Y    0.000013  -0.000062  -0.000045   0.000833   0.000413
  159  C  5  Z    0.000009  -0.000116  -0.000427   0.000952   0.000931
  160  C  5  X   -0.000029  -0.000063   0.000180   0.000014   0.000238
  161  C  5  Y   -0.000016  -0.000036  -0.000150  -0.000142   0.000174
  162  C  5  Z   -0.000017  -0.000249  -0.000161   0.000319   0.000192
  163  C  5 XX   -0.000002  -0.000001   0.000069  -0.000046  -0.000047
  164  C  5 YY    0.000001  -0.000014  -0.000056   0.000031   0.000071
  165  C  5 ZZ    0.000001   0.000015  -0.000014   0.000015  -0.000023
  166  C  5 XY   -0.000002   0.000012   0.000024  -0.000125  -0.000091
  167  C  5 XZ   -0.000002   0.000004   0.000062  -0.000130  -0.000112
  168  C  5 YZ   -0.000001   0.000002   0.000032  -0.000073  -0.000062
  169  C  5 XX    0.000003   0.000059  -0.000261  -0.000490  -0.000260
  170  C  5 YY    0.000003  -0.000004   0.000228   0.000435  -0.000112
  171  C  5 ZZ   -0.000006  -0.000055   0.000032   0.000056   0.000372
  172  C  5 XY    0.000000   0.000057   0.000494  -0.000261  -0.000302
  173  C  5 XZ    0.000006   0.000107   0.000252  -0.000451  -0.000432
  174  C  5 YZ    0.000003   0.000058   0.000049  -0.000304  -0.000216
  175  C  5 XXX  -0.000000   0.000025  -0.000041   0.000121   0.000113
  176  C  5 YYY   0.000004   0.000020  -0.000160   0.000367   0.000298
  177  C  5 ZZZ   0.000003  -0.000038  -0.000162   0.000349   0.000297
  178  C  5 XXY  -0.000005  -0.000001   0.000175  -0.000358  -0.000281
  179  C  5 XXZ  -0.000006   0.000016   0.000104  -0.000151  -0.000152
  180  C  5 YYX   0.000000   0.000012  -0.000065   0.000078   0.000088
  181  C  5 YYZ   0.000002   0.000035   0.000114  -0.000317  -0.000246
  182  C  5 ZZX  -0.000000  -0.000045   0.000119  -0.000241  -0.000239
  183  C  5 ZZY  -0.000000  -0.000026   0.000040  -0.000135  -0.000119
  184  C  5 XYZ  -0.000007  -0.000018  -0.000072   0.000097   0.000087
  185  C  6  S   -0.000002  -0.000083  -0.285373  -0.688292   0.634150
  186  C  6  S   -0.000004  -0.000167  -0.000467  -0.001170   0.001198
  187  C  6  S    0.000001  -0.000019  -0.012129  -0.029261   0.026978
  188  C  6  S    0.000093   0.000172  -0.002312  -0.005204   0.003766
  189  C  6  X   -0.000000  -0.000004   0.000005  -0.000057   0.000041
  190  C  6  Y   -0.000002  -0.000018  -0.000226  -0.000537   0.000476
  191  C  6  Z    0.000001   0.000018   0.000056   0.000127  -0.000140
  192  C  6  X   -0.000001   0.000019  -0.000268   0.000321  -0.000110
  193  C  6  Y   -0.000029   0.000159   0.000704   0.001588  -0.001261
  194  C  6  Z   -0.000000  -0.000066  -0.000220  -0.000402   0.000584
  195  C  6  X    0.000002   0.000047   0.000250  -0.000057  -0.000064
  196  C  6  Y    0.000036   0.000148  -0.000040   0.000039  -0.000338
  197  C  6  Z   -0.000005  -0.000208  -0.000118  -0.000343   0.000090
  198  C  6 XX    0.000002  -0.000018  -0.000037  -0.000101   0.000110
  199  C  6 YY   -0.000004   0.000008   0.000080   0.000181  -0.000154
  200  C  6 ZZ    0.000002   0.000010  -0.000043  -0.000079   0.000045
  201  C  6 XY   -0.000000   0.000002  -0.000036   0.000050  -0.000019
  202  C  6 XZ   -0.000000  -0.000007  -0.000015   0.000000   0.000021
  203  C  6 YZ    0.000001  -0.000007  -0.000034  -0.000062   0.000080
  204  C  6 XX    0.000002  -0.000033  -0.000266  -0.000383   0.000112
  205  C  6 YY    0.000006   0.000135   0.000258   0.000704  -0.000636
  206  C  6 ZZ   -0.000009  -0.000102   0.000009  -0.000322   0.000523
  207  C  6 XY    0.000001   0.000016   0.000501  -0.000161  -0.000118
  208  C  6 XZ    0.000003   0.000015   0.000192  -0.000169  -0.000134
  209  C  6 YZ   -0.000002  -0.000046  -0.000033  -0.000283   0.000089
  210  C  6 XXX  -0.000002  -0.000017  -0.000097  -0.000159   0.000153
  211  C  6 YYY   0.000009  -0.000013  -0.000105  -0.000237   0.000197
  212  C  6 ZZZ   0.000001   0.000005  -0.000159  -0.000383   0.000361
  213  C  6 XXY  -0.000006  -0.000029   0.000147   0.000307  -0.000272
  214  C  6 XXZ   0.000003   0.000029   0.000160   0.000400  -0.000340
  215  C  6 YYX   0.000002   0.000009   0.000012  -0.000077   0.000052
  216  C  6 YYZ  -0.000004  -0.000036   0.000053   0.000114  -0.000145
  217  C  6 ZZX   0.000001   0.000014   0.000118   0.000290  -0.000257
  218  C  6 ZZY  -0.000006   0.000046  -0.000006   0.000011   0.000008
  219  C  6 XYZ  -0.000000  -0.000021  -0.000003   0.000074  -0.000051
  220  H  7  S   -0.000000  -0.000029   0.000158  -0.000041   0.000083
  221  H  7  S   -0.000015   0.000141  -0.001400  -0.000499  -0.000308
  222  H  7  S    0.000002   0.000094  -0.000814   0.000152  -0.000503
  223  H  7  X    0.000001  -0.000025   0.000032  -0.000006   0.000025
  224  H  7  Y    0.000001   0.000008   0.000297   0.000031   0.000126
  225  H  7  Z   -0.000001   0.000005  -0.000054  -0.000003  -0.000031
  226  H  7  X    0.000007   0.000111  -0.000024   0.000117  -0.000011
  227  H  7  Y    0.000005  -0.000118   0.000602   0.000181   0.000220
  228  H  7  Z   -0.000004  -0.000037  -0.000173  -0.000024   0.000016
  229  H  7 XX    0.000001  -0.000010   0.000139   0.000014   0.000069
  230  H  7 YY   -0.000001   0.000020  -0.000242  -0.000017  -0.000122
  231  H  7 ZZ   -0.000000  -0.000010   0.000102   0.000003   0.000053
  232  H  7 XY   -0.000003  -0.000022  -0.000031  -0.000012  -0.000016
  233  H  7 XZ    0.000000  -0.000006   0.000004   0.000012   0.000010
  234  H  7 YZ    0.000001   0.000013   0.000091  -0.000000   0.000032
  235  H  8  S    0.000001   0.000007   0.000215   0.000006   0.000048
  236  H  8  S   -0.000003   0.000181  -0.001776  -0.000062  -0.000861
  237  H  8  S    0.000014  -0.000071  -0.001032  -0.000033  -0.000337
  238  H  8  X    0.000000   0.000009  -0.000050  -0.000001  -0.000026
  239  H  8  Y   -0.000000  -0.000004  -0.000034   0.000000  -0.000018
  240  H  8  Z    0.000000  -0.000009   0.000286   0.000011   0.000151
  241  H  8  X    0.000009  -0.000042  -0.000228   0.000029  -0.000088
  242  H  8  Y   -0.000006   0.000040  -0.000027   0.000060  -0.000033
  243  H  8  Z    0.000004  -0.000068   0.000720   0.000039   0.000374
  244  H  8 XX    0.000002  -0.000010   0.000119   0.000021   0.000057
  245  H  8 YY    0.000000  -0.000004   0.000130  -0.000010   0.000067
  246  H  8 ZZ   -0.000002   0.000013  -0.000249  -0.000011  -0.000124
  247  H  8 XY   -0.000001   0.000001  -0.000018   0.000011  -0.000005
  248  H  8 XZ   -0.000002   0.000009   0.000103   0.000004   0.000053
  249  H  8 YZ    0.000002  -0.000010   0.000036  -0.000007   0.000018
  250  H  9  S   -0.000000  -0.000029   0.000155   0.000052   0.000081
  251  H  9  S   -0.000015   0.000142  -0.001424   0.000413  -0.000324
  252  H  9  S    0.000002   0.000094  -0.000805  -0.000213  -0.000497
  253  H  9  X   -0.000000  -0.000020  -0.000226   0.000014  -0.000089
  254  H  9  Y   -0.000001   0.000016  -0.000136  -0.000002  -0.000065
  255  H  9  Z   -0.000001   0.000007  -0.000151   0.000001  -0.000074
  256  H  9  X    0.000000   0.000162  -0.000493   0.000058  -0.000198
  257  H  9  Y   -0.000007  -0.000032  -0.000189   0.000156  -0.000095
  258  H  9  Z   -0.000006  -0.000018  -0.000353   0.000082  -0.000057
  259  H  9 XX    0.000002   0.000032  -0.000088  -0.000004  -0.000050
  260  H  9 YY   -0.000001  -0.000018   0.000071  -0.000001   0.000035
  261  H  9 ZZ   -0.000002  -0.000014   0.000018   0.000005   0.000015
  262  H  9 XY   -0.000002   0.000006  -0.000146   0.000010  -0.000078
  263  H  9 XZ   -0.000001  -0.000003  -0.000175  -0.000010  -0.000074
  264  H  9 YZ   -0.000001  -0.000002  -0.000088   0.000008  -0.000047
  265  H 10  S   -0.000000  -0.000029  -0.000016   0.000147   0.000107
  266  H 10  S   -0.000015   0.000142   0.000990  -0.000922  -0.000687
  267  H 10  S    0.000002   0.000094   0.000117  -0.000723  -0.000635
  268  H 10  X    0.000000   0.000016  -0.000117   0.000194   0.000162
  269  H 10  Y   -0.000001   0.000015   0.000060  -0.000119  -0.000104
  270  H 10  Z   -0.000001   0.000014   0.000016  -0.000043  -0.000045
  271  H 10  X    0.000002  -0.000145  -0.000309   0.000415   0.000331
  272  H 10  Y   -0.000007  -0.000022   0.000223  -0.000089  -0.000177
  273  H 10  Z   -0.000006  -0.000079   0.000122  -0.000089  -0.000017
  274  H 10 XX    0.000001   0.000023   0.000055  -0.000129  -0.000107
  275  H 10 YY   -0.000001  -0.000017  -0.000019   0.000040   0.000035
  276  H 10 ZZ   -0.000000  -0.000006  -0.000035   0.000090   0.000072
  277  H 10 XY    0.000002  -0.000008  -0.000081   0.000136   0.000138
  278  H 10 XZ    0.000002   0.000021  -0.000032   0.000066   0.000043
  279  H 10 YZ   -0.000001  -0.000006   0.000015  -0.000023  -0.000023
  280  H 11  S    0.000001   0.000007  -0.000093   0.000177   0.000094
  281  H 11  S   -0.000003   0.000181   0.000651  -0.001404  -0.001226
  282  H 11  S    0.000014  -0.000071   0.000418  -0.000835  -0.000555
  283  H 11  X   -0.000000  -0.000006   0.000022  -0.000052  -0.000049
  284  H 11  Y   -0.000000  -0.000003   0.000013  -0.000025  -0.000025
  285  H 11  Z    0.000000  -0.000012  -0.000101   0.000223   0.000207
  286  H 11  X   -0.000010   0.000068  -0.000012  -0.000068  -0.000072
  287  H 11  Y   -0.000006   0.000037   0.000061   0.000010  -0.000048
  288  H 11  Z    0.000000  -0.000046  -0.000272   0.000592   0.000532
  289  H 11 XX   -0.000000  -0.000001  -0.000036   0.000109   0.000087
  290  H 11 YY    0.000000  -0.000004  -0.000057   0.000094   0.000095
  291  H 11 ZZ   -0.000000   0.000004   0.000093  -0.000203  -0.000182
  292  H 11 XY   -0.000000   0.000003  -0.000010  -0.000003  -0.000001
  293  H 11 XZ    0.000003  -0.000016  -0.000024   0.000068   0.000054
  294  H 11 YZ    0.000002  -0.000009  -0.000026   0.000025   0.000029
  295  H 12  S   -0.000000  -0.000029  -0.000095   0.000099   0.000121
  296  H 12  S   -0.000015   0.000141   0.000222  -0.001396  -0.000552
  297  H 12  S    0.000002   0.000094   0.000424  -0.000533  -0.000690
  298  H 12  X   -0.000001   0.000021   0.000001   0.000014  -0.000002
  299  H 12  Y    0.000001   0.000006  -0.000096   0.000249   0.000186
  300  H 12  Z   -0.000001   0.000014   0.000021  -0.000044  -0.000048
  301  H 12  X   -0.000005  -0.000096  -0.000133   0.000058   0.000058
  302  H 12  Y    0.000005  -0.000111  -0.000095   0.000571   0.000323
  303  H 12  Z   -0.000006  -0.000079   0.000023  -0.000157  -0.000003
  304  H 12 XX    0.000001  -0.000012  -0.000034   0.000114   0.000097
  305  H 12 YY   -0.000001   0.000018   0.000079  -0.000196  -0.000170
  306  H 12 ZZ   -0.000000  -0.000006  -0.000045   0.000082   0.000073
  307  H 12 XY    0.000002   0.000017   0.000022  -0.000023  -0.000021
  308  H 12 XZ    0.000001   0.000006  -0.000012   0.000013   0.000006
  309  H 12 YZ    0.000002   0.000020  -0.000034   0.000073   0.000051
  310  H 13  S   -0.000000  -0.000029  -0.000009  -0.000144   0.000112
  311  H 13  S   -0.000015   0.000142   0.000941   0.000947  -0.000721
  312  H 13  S    0.000002   0.000094   0.000080   0.000705  -0.000661
  313  H 13  X    0.000001  -0.000007  -0.000102  -0.000204   0.000184
  314  H 13  Y    0.000000  -0.000025   0.000063   0.000100  -0.000082
  315  H 13  Z   -0.000001   0.000006   0.000016   0.000038  -0.000041
  316  H 13  X    0.000008  -0.000039  -0.000350  -0.000305   0.000328
  317  H 13  Y    0.000003   0.000157   0.000113   0.000285  -0.000210
  318  H 13  Z   -0.000004  -0.000039   0.000094   0.000137  -0.000027
  319  H 13 XX   -0.000003  -0.000006   0.000060   0.000115  -0.000116
  320  H 13 YY    0.000003   0.000016  -0.000028  -0.000034   0.000039
  321  H 13 ZZ   -0.000000  -0.000010  -0.000032  -0.000081   0.000078
  322  H 13 XY   -0.000000  -0.000025  -0.000065  -0.000145   0.000139
  323  H 13 XZ    0.000001   0.000008  -0.000029  -0.000058   0.000049
  324  H 13 YZ   -0.000001  -0.000013   0.000008   0.000042  -0.000017
  325  H 14  S   -0.000000  -0.000029  -0.000090  -0.000099   0.000125
  326  H 14  S   -0.000015   0.000141   0.000150   0.001385  -0.000602
  327  H 14  S    0.000002   0.000094   0.000397   0.000530  -0.000709
  328  H 14  X   -0.000001   0.000003   0.000068   0.000194  -0.000156
  329  H 14  Y    0.000001  -0.000025   0.000028   0.000103  -0.000066
  330  H 14  Z   -0.000001   0.000007   0.000043   0.000121  -0.000108
  331  H 14  X   -0.000006   0.000061  -0.000012   0.000417  -0.000260
  332  H 14  Y    0.000004   0.000154   0.000133   0.000242  -0.000194
  333  H 14  Z   -0.000006  -0.000020   0.000059   0.000337  -0.000129
  334  H 14 XX   -0.000002   0.000002   0.000019   0.000073  -0.000070
  335  H 14 YY    0.000003   0.000013  -0.000011  -0.000062   0.000050
  336  H 14 ZZ   -0.000002  -0.000014  -0.000008  -0.000011   0.000019
  337  H 14 XY    0.000001   0.000029   0.000039   0.000116  -0.000110
  338  H 14 XZ   -0.000002  -0.000004   0.000049   0.000135  -0.000118
  339  H 14 YZ   -0.000000  -0.000002   0.000044   0.000077  -0.000063
  340  H 15  S    0.000001   0.000007  -0.000083  -0.000178   0.000101
  341  H 15  S   -0.000003   0.000181   0.000578   0.001391  -0.001276
  342  H 15  S    0.000014  -0.000071   0.000374   0.000835  -0.000585
  343  H 15  X   -0.000000   0.000002   0.000017   0.000046  -0.000043
  344  H 15  Y    0.000000   0.000010   0.000007   0.000016  -0.000014
  345  H 15  Z    0.000000  -0.000009  -0.000091  -0.000222   0.000217
  346  H 15  X   -0.000000   0.000011  -0.000014   0.000150  -0.000102
  347  H 15  Y    0.000011  -0.000058   0.000064   0.000135  -0.000093
  348  H 15  Z    0.000004  -0.000067  -0.000241  -0.000554   0.000543
  349  H 15 XX    0.000000  -0.000005  -0.000038  -0.000084   0.000086
  350  H 15 YY    0.000002  -0.000008  -0.000044  -0.000109   0.000097
  351  H 15 ZZ   -0.000002   0.000013   0.000083   0.000194  -0.000183
  352  H 15 XY    0.000001  -0.000003  -0.000015   0.000019  -0.000006
  353  H 15 XZ    0.000000  -0.000004  -0.000022  -0.000072   0.000065
  354  H 15 YZ   -0.000003   0.000013  -0.000024  -0.000046   0.000047

                      6          7          8          9         10
                   -8.0027    -5.8991    -5.8973    -5.8973    -2.4165
                     A          A          A          A          A   
    1  LA 1  S    0.000006  -0.000018   0.000000  -0.000000   0.648748
    2  LA 1  X    0.000009  -0.000025  -0.000023   0.000001   0.000396
    3  LA 1  Y    0.000004  -0.000013  -0.000000  -0.000024   0.000201
    4  LA 1  Z   -0.000043   0.000125  -0.000005  -0.000002  -0.001956
    5  LA 1 XX   -0.000045   0.000129  -0.000014   0.000002   0.003336
    6  LA 1 YY   -0.000049   0.000142  -0.000000  -0.000009   0.003665
    7  LA 1 ZZ    0.000094  -0.000271   0.000014   0.000007  -0.007001
    8  LA 1 XY    0.000003  -0.000010  -0.000002  -0.000008  -0.000259
    9  LA 1 XZ   -0.000034   0.000097   0.000039  -0.000001   0.002521
   10  LA 1 YZ   -0.000017   0.000049  -0.000000   0.000040   0.001277
   11  LA 1 XX   -0.000011   0.000092   0.000028  -0.000008  -0.001157
   12  LA 1 YY   -0.000012   0.000101   0.000001   0.000022  -0.001271
   13  LA 1 ZZ    0.000022  -0.000194  -0.000029  -0.000014   0.002428
   14  LA 1 XY    0.000001  -0.000007   0.000000   0.000017   0.000090
   15  LA 1 XZ   -0.000008   0.000070  -0.000078   0.000002  -0.000874
   16  LA 1 YZ   -0.000004   0.000035  -0.000000  -0.000080  -0.000443
   17  LA 1  S    0.000168  -0.000723  -0.000000   0.000000  -0.021058
   18  LA 1  X    0.000004   0.000033  -0.000111   0.000003   0.000102
   19  LA 1  Y    0.000002   0.000017  -0.000001  -0.000113   0.000052
   20  LA 1  Z   -0.000021  -0.000163  -0.000023  -0.000011  -0.000503
   21  LA 1  S   -0.000090   0.000416   0.000000  -0.000000   0.009495
   22  LA 1  X    0.000001  -0.000037   0.000048  -0.000001  -0.000181
   23  LA 1  Y    0.000000  -0.000019   0.000000   0.000049  -0.000092
   24  LA 1  Z   -0.000004   0.000183   0.000010   0.000005   0.000894
   25  LA 1  S    0.000202  -0.000555   0.000000  -0.000000   0.381029
   26  LA 1  X   -0.000067   0.000198   0.000043  -0.000001   0.001118
   27  LA 1  Y   -0.000034   0.000101   0.000000   0.000044   0.000566
   28  LA 1  Z    0.000332  -0.000980   0.000009   0.000004  -0.005517
   29  LA 1 XX    0.000012  -0.000051   0.000006   0.000004   0.000384
   30  LA 1 YY    0.000013  -0.000056  -0.000001  -0.000002   0.000422
   31  LA 1 ZZ   -0.000026   0.000107  -0.000005  -0.000003  -0.000806
   32  LA 1 XY   -0.000001   0.000004   0.000007   0.000003  -0.000030
   33  LA 1 XZ    0.000009  -0.000039  -0.000015   0.000002   0.000290
   34  LA 1 YZ    0.000005  -0.000020   0.000001  -0.000017   0.000147
   35  P  2  S   -0.000321   0.000461   0.000000  -0.000000  -0.000260
   36  P  2  S    0.954791   0.006863   0.000000  -0.000000  -0.001796
   37  P  2  S   -0.001479   0.002021   0.000000  -0.000000  -0.001205
   38  P  2  S    0.061992  -0.002022  -0.000000   0.000000   0.001478
   39  P  2  S    0.005239   0.000097  -0.000000   0.000000  -0.015190
   40  P  2  X    0.000634  -0.188989   0.940948  -0.025019  -0.000513
   41  P  2  Y    0.000322  -0.095981   0.006024   0.955309  -0.000260
   42  P  2  Z   -0.003136   0.933947   0.191025   0.093113   0.002534
   43  P  2  X   -0.000334   0.000906  -0.001487   0.000039  -0.000868
   44  P  2  Y   -0.000170   0.000460  -0.000010  -0.001509  -0.000440
   45  P  2  Z    0.001652  -0.004477  -0.000302  -0.000147   0.004286
   46  P  2  X    0.000324  -0.015712   0.075140  -0.001998   0.000201
   47  P  2  Y    0.000165  -0.007979   0.000481   0.076287   0.000102
   48  P  2  Z   -0.001601   0.077645   0.015254   0.007436  -0.000992
   49  P  2  X   -0.000214   0.000064   0.000841  -0.000022   0.000632
   50  P  2  Y   -0.000109   0.000032   0.000005   0.000853   0.000322
   51  P  2  Z    0.001059  -0.000315   0.000171   0.000083  -0.003128
   52  P  2 XX   -0.000116   0.000423   0.000059   0.000316   0.000150
   53  P  2 YY   -0.000128   0.000465  -0.000035  -0.000306   0.000165
   54  P  2 ZZ    0.000244  -0.000888  -0.000023  -0.000010  -0.000315
   55  P  2 XY    0.000009  -0.000033   0.000382  -0.000012  -0.000012
   56  P  2 XZ   -0.000088   0.000320  -0.000059   0.000076   0.000113
   57  P  2 YZ   -0.000044   0.000162   0.000072  -0.000152   0.000058
   58  P  2 XX    0.000517  -0.001066   0.000083  -0.000517  -0.000043
   59  P  2 YY    0.000568  -0.001171   0.000058   0.000588  -0.000047
   60  P  2 ZZ   -0.001085   0.002237  -0.000141  -0.000071   0.000090
   61  P  2 XY   -0.000040   0.000083  -0.000566   0.000122   0.000003
   62  P  2 XZ    0.000391  -0.000806  -0.000394  -0.000099  -0.000032
   63  P  2 YZ    0.000198  -0.000408  -0.000110  -0.000266  -0.000017
   64  P  2 XXX  -0.000037   0.000031  -0.000086  -0.000024   0.000052
   65  P  2 YYY  -0.000301  -0.000039   0.000001  -0.000087   0.000168
   66  P  2 ZZZ  -0.000146   0.000089   0.000086   0.000042   0.000175
   67  P  2 XXY   0.000350   0.000077  -0.000016  -0.000042  -0.000168
   68  P  2 XXZ   0.000132  -0.000047  -0.000097   0.000053  -0.000129
   69  P  2 YYX  -0.000052   0.000007  -0.000055   0.000024   0.000041
   70  P  2 YYZ   0.000064  -0.000073  -0.000018  -0.000110  -0.000106
   71  P  2 ZZX   0.000102  -0.000048   0.000171   0.000009  -0.000110
   72  P  2 ZZY   0.000054  -0.000024   0.000014   0.000159  -0.000057
   73  P  2 XYZ   0.000067   0.000024   0.000040  -0.000057  -0.000025
   74  P  2 XX   -0.000319   0.000261   0.000375  -0.000447  -0.000042
   75  P  2 YY   -0.000350   0.000286   0.000050   0.000657  -0.000046
   76  P  2 ZZ    0.000669  -0.000547  -0.000426  -0.000210   0.000089
   77  P  2 XY    0.000025  -0.000020  -0.000390   0.000280   0.000003
   78  P  2 XZ   -0.000241   0.000197  -0.001168  -0.000043  -0.000032
   79  P  2 YZ   -0.000122   0.000100  -0.000081  -0.001099  -0.000016
   80  O  3  S   -0.000038   0.000250  -0.000000   0.000000  -0.000806
   81  O  3  S    0.000234  -0.000520   0.000000  -0.000000   0.029194
   82  O  3  S    0.000041  -0.000179   0.000000  -0.000000   0.006579
   83  O  3  S    0.001220  -0.004064   0.000000  -0.000000   0.016419
   84  O  3  X   -0.000040   0.000122   0.000090  -0.000002   0.001630
   85  O  3  Y   -0.000020   0.000062   0.000001   0.000092   0.000826
   86  O  3  Z    0.000196  -0.000604   0.000018   0.000009  -0.008048
   87  O  3  X   -0.000071   0.000177   0.000210  -0.000006   0.002681
   88  O  3  Y   -0.000036   0.000090   0.000001   0.000213   0.001359
   89  O  3  Z    0.000349  -0.000875   0.000043   0.000021  -0.013240
   90  O  3  X   -0.000252   0.000792   0.000039  -0.000001  -0.001175
   91  O  3  Y   -0.000128   0.000401   0.000000   0.000040  -0.000595
   92  O  3  Z    0.001246  -0.003911   0.000008   0.000004   0.005802
   93  O  3 XX   -0.000013   0.000055  -0.000014  -0.000007  -0.000274
   94  O  3 YY   -0.000014   0.000060   0.000001   0.000001  -0.000301
   95  O  3 ZZ    0.000027  -0.000115   0.000013   0.000006   0.000575
   96  O  3 XY    0.000001  -0.000004  -0.000013  -0.000007   0.000021
   97  O  3 XZ   -0.000010   0.000042   0.000035  -0.000003  -0.000207
   98  O  3 YZ   -0.000005   0.000021  -0.000002   0.000038  -0.000105
   99  O  3 XX   -0.000062   0.000167  -0.000033   0.000024  -0.001477
  100  O  3 YY   -0.000068   0.000183  -0.000003  -0.000042  -0.001622
  101  O  3 ZZ    0.000129  -0.000350   0.000036   0.000018   0.003099
  102  O  3 XY    0.000005  -0.000013   0.000017  -0.000023   0.000115
  103  O  3 XZ   -0.000047   0.000126   0.000099   0.000000  -0.001116
  104  O  3 YZ   -0.000024   0.000064   0.000004   0.000097  -0.000565
  105  O  3 XXX  -0.000007   0.000030   0.000001  -0.000003  -0.000138
  106  O  3 YYY  -0.000003   0.000016   0.000000   0.000003  -0.000068
  107  O  3 ZZZ  -0.000022   0.000093  -0.000000  -0.000000  -0.000425
  108  O  3 XXY  -0.000003   0.000006  -0.000003   0.000000  -0.000034
  109  O  3 XXZ   0.000013  -0.000057   0.000001   0.000006   0.000261
  110  O  3 YYX  -0.000003   0.000014  -0.000001   0.000001  -0.000062
  111  O  3 YYZ   0.000016  -0.000068  -0.000001  -0.000006   0.000309
  112  O  3 ZZX   0.000013  -0.000054  -0.000001   0.000003   0.000247
  113  O  3 ZZY   0.000006  -0.000028   0.000003  -0.000004   0.000125
  114  O  3 XYZ  -0.000002   0.000008   0.000008   0.000000  -0.000039
  115  C  4  S   -0.000106   0.000025   0.000063  -0.000040  -0.000088
  116  C  4  S    0.000186   0.000337  -0.000674   0.000426  -0.000112
  117  C  4  S    0.000055   0.000040  -0.000077   0.000049  -0.000075
  118  C  4  S   -0.001314   0.001273  -0.000966   0.000611   0.006006
  119  C  4  X    0.000165   0.000118  -0.000299   0.000221   0.000015
  120  C  4  Y   -0.000091  -0.000076   0.000195  -0.000070  -0.000030
  121  C  4  Z   -0.000032   0.000028   0.000074  -0.000035   0.000097
  122  C  4  X    0.000144   0.000531  -0.001306   0.000708  -0.000174
  123  C  4  Y   -0.000074  -0.000227   0.000583  -0.000567   0.000504
  124  C  4  Z   -0.000055  -0.000395   0.000304  -0.000236  -0.001793
  125  C  4  X   -0.000509   0.000175  -0.000413   0.000066   0.001783
  126  C  4  Y    0.000286  -0.000042   0.000037  -0.000352  -0.000702
[...]
            144  C  4 XXZ     0.00082     0.07902
            145  C  4 YYX     0.00072     0.07253
            146  C  4 YYZ     0.00147     0.06757
            147  C  4 ZZX     0.00000     0.07019
            148  C  4 ZZY     0.00000     0.06537
            149  C  4 XYZ     0.00000     0.00245
            150  C  5  S      1.95557     1.55540
            151  C  5  S      0.82794     0.43037
            152  C  5  S      0.16167     0.27747
            153  C  5  S      0.32864     0.14787
            154  C  5  X      0.27720     0.21386
            155  C  5  Y      0.29393     0.22558
            156  C  5  Z      0.28891     0.22279
            157  C  5  X      0.52094     0.26802
            158  C  5  Y      0.53753     0.27854
            159  C  5  Z      0.53301     0.27878
            160  C  5  X      0.15033     0.18853
            161  C  5  Y      0.18568     0.20167
            162  C  5  Z      0.22116     0.20636
            163  C  5 XX      0.00505     0.08498
            164  C  5 YY      0.00481     0.08641
            165  C  5 ZZ      0.00467     0.08496
            166  C  5 XY      0.00438     0.00499
            167  C  5 XZ      0.00333     0.00502
            168  C  5 YZ      0.00000     0.00375
            169  C  5 XX      0.00806     0.08878
            170  C  5 YY      0.01190     0.08914
            171  C  5 ZZ      0.01197     0.08440
            172  C  5 XY      0.01146     0.02876
            173  C  5 XZ      0.00832     0.02720
            174  C  5 YZ      0.00000     0.01668
            175  C  5 XXX     0.00087     0.15949
            176  C  5 YYY     0.00070     0.16863
            177  C  5 ZZZ     0.00095     0.17001
            178  C  5 XXY     0.00130     0.07929
            179  C  5 XXZ     0.00066     0.07406
            180  C  5 YYX     0.00088     0.07353
            181  C  5 YYZ     0.00140     0.06597
            182  C  5 ZZX     0.00000     0.06838
            183  C  5 ZZY     0.00000     0.06618
            184  C  5 XYZ     0.00000     0.00277
            185  C  6  S      1.95557     1.55585
            186  C  6  S      0.82794     0.43264
            187  C  6  S      0.16167     0.27869
            188  C  6  S      0.32864     0.14881
            189  C  6  X      0.30087     0.22888
            190  C  6  Y      0.26135     0.20702
            191  C  6  Z      0.29782     0.22843
            192  C  6  X      0.54454     0.27962
            193  C  6  Y      0.50228     0.26535
            194  C  6  Z      0.54467     0.28099
            195  C  6  X      0.20253     0.20598
            196  C  6  Y      0.10986     0.17239
            197  C  6  Z      0.24478     0.21187
            198  C  6 XX      0.00561     0.08689
            199  C  6 YY      0.00561     0.08966
            200  C  6 ZZ      0.00398     0.08645
            201  C  6 XY      0.00418     0.00367
            202  C  6 XZ      0.00286     0.00441
            203  C  6 YZ      0.00000     0.00298
            204  C  6 XX      0.01006     0.08774
            205  C  6 YY      0.01408     0.10121
            206  C  6 ZZ      0.01087     0.08675
            207  C  6 XY      0.00834     0.02549
            208  C  6 XZ      0.00835     0.01859
            209  C  6 YZ      0.00000     0.01506
            210  C  6 XXX     0.00093     0.16117
            211  C  6 YYY     0.00082     0.16570
            212  C  6 ZZZ     0.00089     0.16797
            213  C  6 XXY     0.00127     0.07433
            214  C  6 XXZ     0.00088     0.07439
            215  C  6 YYX     0.00053     0.08267
            216  C  6 YYZ     0.00146     0.07263
            217  C  6 ZZX     0.00000     0.07375
            218  C  6 ZZY     0.00000     0.06287
            219  C  6 XYZ     0.00000     0.00242
            220  H  7  S      0.25289     0.19373
            221  H  7  S      0.45208     0.24421
            222  H  7  S      0.06152     0.11890
            223  H  7  X      0.00159     0.00206
            224  H  7  Y      0.00727     0.01049
            225  H  7  Z      0.00190     0.00258
            226  H  7  X      0.01039     0.02900
            227  H  7  Y      0.00569     0.04752
            228  H  7  Z      0.00794     0.02993
            229  H  7 XX      0.00036     0.06904
            230  H  7 YY      0.00064     0.11404
            231  H  7 ZZ      0.00099     0.07132
            232  H  7 XY      0.00010     0.00485
            233  H  7 XZ      0.00079     0.00026
            234  H  7 YZ      0.00000     0.00550
            235  H  8  S      0.24737     0.19045
            236  H  8  S      0.44742     0.23947
            237  H  8  S      0.04556     0.11393
            238  H  8  X      0.00192     0.00290
            239  H  8  Y      0.00165     0.00212
            240  H  8  Z      0.00721     0.01030
            241  H  8  X      0.01055     0.03001
            242  H  8  Y      0.00827     0.02830
            243  H  8  Z      0.00485     0.04721
            244  H  8 XX      0.00085     0.07111
            245  H  8 YY      0.00015     0.06800
            246  H  8 ZZ      0.00013     0.11146
            247  H  8 XY      0.00094     0.00042
            248  H  8 XZ      0.00079     0.00555
            249  H  8 YZ      0.00000     0.00475
            250  H  9  S      0.25289     0.18556
            251  H  9  S      0.45208     0.24185
            252  H  9  S      0.06152     0.11921
            253  H  9  X      0.00511     0.00679
            254  H  9  Y      0.00252     0.00348
            255  H  9  Z      0.00313     0.00429
            256  H  9  X      0.01080     0.04222
            257  H  9  Y      0.00690     0.03139
            258  H  9  Z      0.00632     0.03415
            259  H  9 XX      0.00057     0.09371
            260  H  9 YY      0.00082     0.07468
            261  H  9 ZZ      0.00056     0.07960
            262  H  9 XY      0.00060     0.00465
            263  H  9 XZ      0.00033     0.00523
            264  H  9 YZ      0.00000     0.00249
            265  H 10  S      0.25289     0.18855
            266  H 10  S      0.45208     0.24291
            267  H 10  S      0.06152     0.11939
            268  H 10  X      0.00611     0.00819
            269  H 10  Y      0.00281     0.00414
            270  H 10  Z      0.00184     0.00242
            271  H 10  X      0.00909     0.04438
            272  H 10  Y      0.00644     0.03243
            273  H 10  Z      0.00848     0.03054
            274  H 10 XX      0.00033     0.10215
            275  H 10 YY      0.00096     0.07919
            276  H 10 ZZ      0.00067     0.06895
            277  H 10 XY      0.00070     0.00612
            278  H 10 XZ      0.00023     0.00450
            279  H 10 YZ      0.00000     0.00121
            280  H 11  S      0.24737     0.19026
            281  H 11  S      0.44742     0.23967
            282  H 11  S      0.04556     0.11409
            283  H 11  X      0.00175     0.00240
            284  H 11  Y      0.00165     0.00213
            285  H 11  Z      0.00737     0.01067
            286  H 11  X      0.00864     0.02932
            287  H 11  Y      0.00816     0.02824
            288  H 11  Z      0.00687     0.04782
            289  H 11 XX      0.00095     0.06996
            290  H 11 YY      0.00010     0.06785
            291  H 11 ZZ      0.00010     0.11248
            292  H 11 XY      0.00090     0.00031
            293  H 11 XZ      0.00081     0.00539
            294  H 11 YZ      0.00000     0.00488
            295  H 12  S      0.25289     0.19379
            296  H 12  S      0.45208     0.24420
            297  H 12  S      0.06152     0.11902
            298  H 12  X      0.00164     0.00217
            299  H 12  Y      0.00725     0.01045
            300  H 12  Z      0.00187     0.00253
            301  H 12  X      0.01035     0.02858
            302  H 12  Y      0.00524     0.04722
            303  H 12  Z      0.00843     0.03051
            304  H 12 XX      0.00034     0.06902
            305  H 12 YY      0.00064     0.11397
            306  H 12 ZZ      0.00098     0.07145
            307  H 12 XY      0.00011     0.00496
            308  H 12 XZ      0.00081     0.00031
            309  H 12 YZ      0.00000     0.00540
            310  H 13  S      0.25289     0.18900
            311  H 13  S      0.45208     0.24273
            312  H 13  S      0.06152     0.11906
            313  H 13  X      0.00586     0.00765
            314  H 13  Y      0.00302     0.00479
            315  H 13  Z      0.00188     0.00247
            316  H 13  X      0.00348     0.04263
            317  H 13  Y      0.01255     0.03499
            318  H 13  Z      0.00798     0.02990
            319  H 13 XX      0.00035     0.10047
            320  H 13 YY      0.00086     0.08118
            321  H 13 ZZ      0.00078     0.06905
            322  H 13 XY      0.00062     0.00615
            323  H 13 XZ      0.00026     0.00435
            324  H 13 YZ      0.00000     0.00141
            325  H 14  S      0.25289     0.18569
            326  H 14  S      0.45208     0.24143
            327  H 14  S      0.06152     0.11888
            328  H 14  X      0.00492     0.00632
            329  H 14  Y      0.00271     0.00402
            330  H 14  Z      0.00313     0.00430
            331  H 14  X      0.00515     0.03988
            332  H 14  Y      0.01256     0.03353
            333  H 14  Z      0.00631     0.03409
            334  H 14 XX      0.00057     0.09206
            335  H 14 YY      0.00069     0.07625
            336  H 14 ZZ      0.00069     0.07969
            337  H 14 XY      0.00057     0.00464
            338  H 14 XZ      0.00037     0.00503
            339  H 14 YZ      0.00000     0.00269
            340  H 15  S      0.24737     0.19045
            341  H 15  S      0.44742     0.23949
            342  H 15  S      0.04556     0.11396
            343  H 15  X      0.00185     0.00261
            344  H 15  Y      0.00171     0.00238
            345  H 15  Z      0.00721     0.01031
            346  H 15  X      0.00784     0.02885
            347  H 15  Y      0.01093     0.02953
            348  H 15  Z      0.00491     0.04739
            349  H 15 XX      0.00085     0.06980
            350  H 15 YY      0.00015     0.06933
            351  H 15 ZZ      0.00012     0.11147
            352  H 15 XY      0.00079     0.00037
            353  H 15 XZ      0.00095     0.00565
            354  H 15 YZ      0.00000     0.00463

          ----- MULLIKEN ATOMIC OVERLAP POPULATIONS -----
          (OFF-DIAGONAL ELEMENTS NEED TO BE MULTIPLIED BY 2)

             1           2           3           4           5

    1    8.5901658
    2   -0.0115138  13.2660890
    3    0.0176344   0.2117441   8.5958035
    4    0.0000193   0.3470502  -0.0163554   5.0095578
    5    0.0000195   0.3470507  -0.0163529  -0.0316490   5.0095630
    6    0.0000196   0.3470504  -0.0163526  -0.0316483  -0.0316490
    7    0.0005900  -0.0168140   0.0008940   0.3646773  -0.0027125
    8    0.0004551  -0.0134704   0.0011787   0.3583360  -0.0004024
    9    0.0005901  -0.0168143   0.0008940   0.3646780   0.0023909
   10    0.0005901  -0.0168141   0.0008938   0.0023909   0.3646777
   11    0.0004551  -0.0134701   0.0011787  -0.0004024   0.3583361
   12    0.0005900  -0.0168142   0.0008939  -0.0027126   0.3646772
   13    0.0005901  -0.0168141   0.0008939   0.0023909  -0.0027126
   14    0.0005901  -0.0168146   0.0008939  -0.0027123   0.0023909
   15    0.0004551  -0.0134698   0.0011787  -0.0004025  -0.0004024

             6           7           8           9          10

    6    5.0095607
    7    0.0023909   0.4843535
    8   -0.0004023  -0.0106427   0.4537589
    9   -0.0027123  -0.0190189  -0.0106420   0.4843521
   10   -0.0027124  -0.0000046   0.0000138  -0.0000705   0.4843534
   11   -0.0004025  -0.0002036  -0.0000587   0.0000138  -0.0106417
   12    0.0023909   0.0006980  -0.0002036  -0.0000046  -0.0190200
   13    0.3646771  -0.0000705   0.0000138  -0.0000046   0.0006979
   14    0.3646774  -0.0000046  -0.0002036   0.0006978  -0.0000046
   15    0.3583366   0.0000138  -0.0000587  -0.0002036  -0.0002036

            11          12          13          14          15

   11    0.4537548
   12   -0.0106421   0.4843548
   13   -0.0002036  -0.0000046   0.4843570
   14    0.0000138  -0.0000705  -0.0190206   0.4843549
   15   -0.0000587   0.0000138  -0.0106419  -0.0106416   0.4537522

          TOTAL MULLIKEN AND LOWDIN ATOMIC POPULATIONS
       ATOM         MULL.POP.    CHARGE          LOW.POP.     CHARGE
    1 LA            8.601250    2.398750         8.772550    2.227450
    2 P            14.366175    0.633825        14.311691    0.688309
    3 O             8.785020   -0.785020         8.417674   -0.417674
    4 C             6.363218   -0.363218         6.032698   -0.032698
    5 C             6.363225   -0.363225         6.028639   -0.028639
    6 C             6.363224   -0.363224         6.043355   -0.043355
    7 H             0.804146    0.195854         0.943399    0.056601
    8 H             0.777672    0.222328         0.925982    0.074018
    9 H             0.804146    0.195854         0.929290    0.070710
   10 H             0.804146    0.195854         0.935085    0.064915
   11 H             0.777669    0.222331         0.925457    0.074543
   12 H             0.804146    0.195854         0.943588    0.056412
   13 H             0.804148    0.195852         0.935835    0.064165
   14 H             0.804146    0.195854         0.928524    0.071476
   15 H             0.777667    0.222333         0.926232    0.073768

          MULLIKEN SPHERICAL HARMONIC POPULATIONS
       ATOM           S       P       D      F      G      H      I    TOTAL
    1 LA            2.00    6.10    0.50   0.00   0.00   0.00   0.00    8.60
    2 P             5.34    8.38    0.57   0.07   0.00   0.00   0.00   14.37
    3 O             3.78    4.96    0.04   0.00   0.00   0.00   0.00    8.79
    4 C             3.27    3.01    0.07   0.01   0.00   0.00   0.00    6.36
    5 C             3.27    3.01    0.07   0.01   0.00   0.00   0.00    6.36
    6 C             3.27    3.01    0.07   0.01   0.00   0.00   0.00    6.36
    7 H             0.77    0.03    0.00   0.00   0.00   0.00   0.00    0.80
    8 H             0.74    0.03    0.00   0.00   0.00   0.00   0.00    0.78
    9 H             0.77    0.03    0.00   0.00   0.00   0.00   0.00    0.80
   10 H             0.77    0.03    0.00   0.00   0.00   0.00   0.00    0.80
   11 H             0.74    0.03    0.00   0.00   0.00   0.00   0.00    0.78
   12 H             0.77    0.03    0.00   0.00   0.00   0.00   0.00    0.80
   13 H             0.77    0.03    0.00   0.00   0.00   0.00   0.00    0.80
   14 H             0.77    0.03    0.00   0.00   0.00   0.00   0.00    0.80
   15 H             0.74    0.03    0.00   0.00   0.00   0.00   0.00    0.78

          -------------------------------
          BOND ORDER AND VALENCE ANALYSIS     BOND ORDER THRESHOLD=0.050
          -------------------------------

                   BOND                       BOND                       BOND
  ATOM PAIR DIST  ORDER      ATOM PAIR DIST  ORDER      ATOM PAIR DIST  ORDER
    1   3  2.088  0.679        2   3  1.702  0.770        2   4  1.772  1.019
    2   5  1.772  1.019        2   6  1.772  1.019        4   7  1.089  0.876
    4   8  1.095  0.857        4   9  1.089  0.876        5  10  1.089  0.876
    5  11  1.095  0.857        5  12  1.089  0.876        6  13  1.089  0.876
    6  14  1.089  0.876        6  15  1.095  0.857

                       TOTAL       BONDED        FREE
      ATOM            VALENCE     VALENCE     VALENCE
    1 LA                0.668       0.747      -0.079
    2 P                 4.575       4.223       0.352
    3 O                 2.047       1.486       0.562
    4 C                 3.933       3.640       0.293
    5 C                 3.933       3.640       0.293
    6 C                 3.933       3.640       0.293
    7 H                 0.976       0.925       0.051
    8 H                 0.967       0.917       0.050
    9 H                 0.976       0.925       0.051
   10 H                 0.976       0.925       0.051
   11 H                 0.967       0.917       0.050
   12 H                 0.976       0.925       0.051
   13 H                 0.976       0.925       0.051
   14 H                 0.976       0.925       0.051
   15 H                 0.967       0.917       0.050

          ---------------------
          ELECTROSTATIC MOMENTS
          ---------------------

 POINT   1           X           Y           Z (BOHR)    CHARGE
                 0.032065    1.379021   -4.839761        3.00 (A.U.)
         DX          DY          DZ         /D/  (DEBYE)
     0.211505    0.107090   -1.043980    1.070559
 ...... END OF PROPERTY EVALUATION ......
 CPU     0: STEP CPU TIME=     0.20 TOTAL CPU TIME=     1331.0 (   22.2 MIN)
 TOTAL WALL CLOCK TIME=     1349.6 SECONDS, CPU UTILIZATION IS  98.62%
  $VIB   
          IVIB=   0 IATOM=   0 ICOORD=   0 E=     -565.6105999106
 -4.577913414E-06-3.231332236E-06 2.612895237E-05-4.176561530E-06-6.083811889E-06
  3.334032509E-05 1.260877323E-06 4.473177090E-06-1.959764464E-05-9.085609889E-06
  4.776839378E-06 4.900260224E-07 6.043898554E-06 1.208099074E-06 7.558385612E-06
  1.187215415E-08-7.730462540E-06 6.120771372E-06-1.087006106E-05-3.385790626E-07
 -9.436375794E-06 1.754073095E-05-1.020921185E-05 3.323673656E-07-3.114988571E-06
  1.242087719E-05-6.914407604E-06 6.353770147E-06 1.346291805E-05-5.742138354E-06
 -1.670387789E-05-8.520502621E-06-7.231102553E-06 1.451468029E-05-1.026414333E-06
 -5.485589107E-06-7.121546405E-06-9.285173384E-06-1.077170329E-05 9.231208577E-06
 -9.975112327E-06-7.801532370E-06 6.935389729E-07 2.005866611E-05-9.903063019E-07
  2.115051187E-01 1.070895462E-01-1.043980388E+00
 ......END OF GEOMETRY SEARCH......
 CPU     0: STEP CPU TIME=     0.01 TOTAL CPU TIME=     1331.0 (   22.2 MIN)
 TOTAL WALL CLOCK TIME=     1349.6 SECONDS, CPU UTILIZATION IS  98.62%
               2991919  WORDS OF DYNAMIC MEMORY USED
 EXECUTION OF GAMESS TERMINATED NORMALLY Fri Jun 10 10:39:27 2016
 DDI: 44487344 bytes (42.4 MB / 5 MWords) used by master data server.

 ----------------------------------------
 CPU timing information for all processes
 ========================================
 0: 1328.907 + 2.191 = 1331.99
 1: 1329.310 + 1.986 = 1331.297
 2: 1328.522 + 2.163 = 1330.685
 3: 1329.589 + 2.201 = 1331.791
 4: 1330.67 + 2.238 = 1332.306
 5: 1329.933 + 2.122 = 1332.56
 6: 1331.187 + 2.115 = 1333.303
 7: 1330.353 + 2.101 = 1332.455
 8: 1330.185 + 2.186 = 1332.372
 9: 1330.906 + 2.154 = 1333.61
 10: 1331.766 + 2.149 = 1333.916
 11: 1331.203 + 2.236 = 1333.440
 12: 1329.900 + 2.55 = 1331.956
 13: 1330.715 + 2.162 = 1332.878
 14: 1329.629 + 2.177 = 1331.807
 15: 1329.730 + 1.707 = 1331.438
 16: 0.08 + 0.136 = 0.145
 17: 0.12 + 0.117 = 0.130
 18: 0.10 + 0.129 = 0.140
 19: 0.17 + 0.112 = 0.130
 20: 0.17 + 0.115 = 0.133
 21: 0.13 + 0.118 = 0.132
 22: 0.14 + 0.121 = 0.136
 23: 0.17 + 0.104 = 0.122
 24: 0.12 + 0.123 = 0.136
 25: 0.14 + 0.118 = 0.133
 26: 0.14 + 0.126 = 0.141
 27: 0.17 + 0.114 = 0.132
 28: 0.13 + 0.122 = 0.136
 29: 0.17 + 0.117 = 0.135
 30: 0.15 + 0.117 = 0.133
 31: 0.08 + 0.128 = 0.137
 ----------------------------------------
unset echo
----- accounting info -----
Files used on the master node node159 were:
-rw-r--r-- 1 fzahari quantum     1849 Jun 10 10:16 /local/scratch/fzahari/196725.share/ang_var-1800.F05
-rw-r--r-- 1 fzahari quantum 16883520 Jun 10 10:39 /local/scratch/fzahari/196725.share/ang_var-1800.F10
-rw-r--r-- 1 fzahari quantum        8 Jun 10 10:16 /local/scratch/fzahari/196725.share/ang_var-1800.nodes.mpd
ls: No match.
ls: No match.
ls: No match.
Fri Jun 10 10:39:30 CDT 2016
21282.769u 39.753s 22:34.05 1574.7%	0+0k 1256+205840io 0pf+0w
