----- GAMESS execution script 'rungms' -----
This job is running on host node216
under operating system Linux at Thu Jun 9 00:09:48 CDT 2016
PBS has assigned the following compute nodes to this run:
node216
Available scratch disk space (Kbyte units) at beginning of the job is
Filesystem           1K-blocks      Used Available Use% Mounted on
/dev/sda7            2670838024   1078812 2534088428   1% /local
GAMESS temporary binary files will be written to /local/scratch/fzahari/196571.share
GAMESS supplementary output files will be written to /work1/quantum/fzahari/scr
Copying input file bnd_var-275.inp to your run's scratch directory...
cp bnd_var-275.inp /local/scratch/fzahari/196571.share/bnd_var-275.F05
unset echo
setenv I_MPI_WAIT_MODE enable
setenv I_MPI_PIN disable
setenv I_MPI_DEBUG 0
setenv I_MPI_STATS 0
setenv I_MPI_FABRICS dapl
setenv I_MPI_DAT_LIBRARY libdat2.so
unset echo
MPI kickoff will run GAMESS on 16 cores in 1 nodes.
The binary to be executed is /home/mschmidt/gamess/gamess.132.x
MPI will run 16 compute processes and 16 data servers,
    placing 16 of each process type onto each node.
The scratch disk space on each node is /local/scratch/fzahari/196571.share, with free space
Filesystem           1K-blocks      Used Available Use% Mounted on
/dev/sda7            2670838024   1078836 2534088404   1% /local
setenv I_MPI_HYDRA_ENV all
setenv I_MPI_PERHOST 32
unset echo
mpiexec.hydra -f /local/scratch/fzahari/196571.share/bnd_var-275.processes.mpd -n 32 /home/mschmidt/gamess/gamess.132.x
          ******************************************************
          *         GAMESS VERSION =  5 DEC 2014 (R1)          *
          *             FROM IOWA STATE UNIVERSITY             *
          * M.W.SCHMIDT, K.K.BALDRIDGE, J.A.BOATZ, S.T.ELBERT, *
          *   M.S.GORDON, J.H.JENSEN, S.KOSEKI, N.MATSUNAGA,   *
          *          K.A.NGUYEN, S.J.SU, T.L.WINDUS,           *
          *       TOGETHER WITH M.DUPUIS, J.A.MONTGOMERY       *
          *         J.COMPUT.CHEM.  14, 1347-1363(1993)        *
          **************** 64 BIT INTEL VERSION ****************

  SINCE 1993, STUDENTS AND POSTDOCS WORKING AT IOWA STATE UNIVERSITY
  AND ALSO IN THEIR VARIOUS JOBS AFTER LEAVING ISU HAVE MADE IMPORTANT
  CONTRIBUTIONS TO THE CODE:
     IVANA ADAMOVIC, CHRISTINE AIKENS, YURI ALEXEEV, POOJA ARORA,
     ANDREY ASADCHEV, ROB BELL, PRADIPTA BANDYOPADHYAY, JONATHAN BENTZ,
     BRETT BODE, KURT BRORSEN, CALEB CARLIN, GALINA CHABAN, WEI CHEN,
     CHEOL HO CHOI, PAUL DAY, ALBERT DEFUSCO, NUWAN DESILVA, TIM DUDLEY,
     DMITRI FEDOROV, GRAHAM FLETCHER, MARK FREITAG, KURT GLAESEMANN,
     DAN KEMP, GRANT MERRILL, NORIYUKI MINEZAWA, JONATHAN MULLIN,
     TAKESHI NAGATA, SEAN NEDD, HEATHER NETZLOFF, BOSILJKA NJEGIC, RYAN OLSON,
     MIKE PAK, SPENCER PRUITT, LUKE ROSKOP, JIM SHOEMAKER, LYUDMILA SLIPCHENKO,
     TONY SMITH, SAROM SOK, JIE SONG, TETSUYA TAKETSUGU, SIMON WEBB,
     PENG XU, SOOHAENG YOO, FEDERICO ZAHARIEV

  ADDITIONAL CODE HAS BEEN PROVIDED BY COLLABORATORS IN OTHER GROUPS:
     IOWA STATE UNIVERSITY:
          JOE IVANIC, AARON WEST, LAIMUTIS BYTAUTAS, KLAUS RUEDENBERG
     UNIVERSITY OF TOKYO: KIMIHIKO HIRAO, TAKAHITO NAKAJIMA,
          TAKAO TSUNEDA, MUNEAKI KAMIYA, SUSUMU YANAGISAWA,
          KIYOSHI YAGI, MAHITO CHIBA, SEIKEN TOKURA, NAOAKI KAWAKAMI
     UNIVERSITY OF AARHUS: FRANK JENSEN
     UNIVERSITY OF IOWA: VISVALDAS KAIRYS, HUI LI
     NATIONAL INST. OF STANDARDS AND TECHNOLOGY: WALT STEVENS, DAVID GARMER
     UNIVERSITY OF PISA: BENEDETTA MENNUCCI, JACOPO TOMASI
     UNIVERSITY OF MEMPHIS: HENRY KURTZ, PRAKASHAN KORAMBATH
     UNIVERSITY OF ALBERTA: TOBY ZENG, MARIUSZ KLOBUKOWSKI
     UNIVERSITY OF NEW ENGLAND: MARK SPACKMAN
     MIE UNIVERSITY: HIROAKI UMEDA
     NAT. INST. OF ADVANCED INDUSTRIAL SCIENCE AND TECHNOLOGY: KAZUO KITAURA
     MICHIGAN STATE UNIVERSITY:
          KAROL KOWALSKI, MARTA WLOCH, JEFFREY GOUR, JESSE LUTZ,
          WEI LI, PIOTR PIECUCH
     UNIVERSITY OF SILESIA: MONIKA MUSIAL, STANISLAW KUCHARSKI
     FACULTES UNIVERSITAIRES NOTRE-DAME DE LA PAIX:
          OLIVIER QUINET, BENOIT CHAMPAGNE
     UNIVERSITY OF CALIFORNIA - SANTA BARBARA: BERNARD KIRTMAN
     INSTITUTE FOR MOLECULAR SCIENCE:
          KAZUYA ISHIMURA, MICHIO KATOUDA, AND SHIGERU NAGASE
     UNIVERSITY OF NOTRE DAME: ANNA POMOGAEVA, DAN CHIPMAN
     KYUSHU UNIVERSITY:
          HARUYUKI NAKANO,
          FENG LONG GU, JACEK KORCHOWIEC, MARCIN MAKOWSKI, AND YURIKO AOKI,
          HIROTOSHI MORI AND EISAKU MIYOSHI
     PENNSYLVANIA STATE UNIVERSITY:
          TZVETELIN IORDANOV, CHET SWALINA, JONATHAN SKONE,
          SHARON HAMMES-SCHIFFER
     WASEDA UNIVERSITY:
          MASATO KOBAYASHI, TOMOKO AKAMA, TSUGUKI TOUMA,
          TAKESHI YOSHIKAWA, YASUHIRO IKABATA, HIROMI NAKAI
     NANJING UNIVERSITY: SHUHUA LI
     UNIVERSITY OF NEBRASKA:
          PEIFENG SU, DEJUN SI, NANDUN THELLAMUREGE, YALI WANG, HUI LI
     UNIVERSITY OF ZURICH: ROBERTO PEVERATI, KIM BALDRIDGE
     N. COPERNICUS UNIVERSITY AND JACKSON STATE UNIVERSITY:
          MARIA BARYSZ
     UNIVERSITY OF COPENHAGEN: CASPER STEINMANN
     TOKYO INSTITUTE OF TECHNOLOGY: HIROYA NAKATA
     NAGOYA UNIVERSITY: YOSHIO NISHIMOTO, STEPHAN IRLE


 PARALLEL VERSION RUNNING ON       16 PROCESSORS IN        1 NODES.

 EXECUTION OF GAMESS BEGUN Thu Jun  9 00:09:49 2016

            ECHO OF THE FIRST FEW INPUT CARDS -
 INPUT CARD> $ZMAT DLC=.T. AUTO=.T. $END                                                    
 INPUT CARD> $ZMAT IFZMAT(1)=1, 1 , 3  FVALUE(1)= 2.75 $END                                 
 INPUT CARD> $CONTRL COORD=UNIQUE NZVAR= 39 $END                                            
 INPUT CARD> $CONTRL ICHARG=+3 MULT=1                                                       
 INPUT CARD>         MPLEVL=2                                                               
 INPUT CARD>         SCFTYP=RHF                                                             
 INPUT CARD>         MAXIT=200 ISPHER=1 ICUT=11                                             
 INPUT CARD>         RUNTYP=OPTIMIZE                                                        
 INPUT CARD>         PP=READ                                                                
 INPUT CARD>         $END                                                                   
 INPUT CARD> $SCF    DIRSCF=.T. FDIFF=.F. $END                                              
 INPUT CARD> $TRANS  DIRTRF=.T. $END                                                        
 INPUT CARD> $SYSTEM MWORDS=300 MEMDDI=300 $END                                             
 INPUT CARD> $GUESS  GUESS=HUCKEL $END                                                      
 INPUT CARD> $BASIS  BASNAM(1)=METAL,                                                       
 INPUT CARD>                   LIGP,                                                        
 INPUT CARD>                   LIGO,                                                        
 INPUT CARD>                   LIGC,                                                        
 INPUT CARD>                   LIGC,                                                        
 INPUT CARD>                   LIGC,                                                        
 INPUT CARD>                   LIGH,                                                        
 INPUT CARD>                   LIGH,                                                        
 INPUT CARD>                   LIGH,                                                        
 INPUT CARD>                   LIGH,                                                        
 INPUT CARD>                   LIGH,                                                        
 INPUT CARD>                   LIGH,                                                        
 INPUT CARD>                   LIGH,                                                        
 INPUT CARD>                   LIGH,                                                        
 INPUT CARD>                   LIGH                                                         
 INPUT CARD> $END                                                                           
 INPUT CARD> $DATA                                                                          
 INPUT CARD>                                                                                
 INPUT CARD> C1                                                                             
 INPUT CARD> La 57.0 -0.1739353441 1.134168269 -4.0490164368                                
 INPUT CARD> P 15.0 -0.0177233476202 0.148598995647 0.345788103615                          
 INPUT CARD> O 8.0 -0.0795358706202 0.532839915547 -1.36722730438                           
 INPUT CARD> C 6.0 -1.46721524372 0.861054759447 1.08146497902                              
 INPUT CARD> C 6.0 1.47480360818 0.871343628947 0.978199291215                              
 INPUT CARD> C 6.0 -0.00679336822016 -1.62168105225 0.472550856815                          
 INPUT CARD> H 1.0 -1.46896391052 1.94388783045 0.968093581015                              
 INPUT CARD> H 1.0 -1.43048264742 0.624851981847 2.14935750292                              
 INPUT CARD> H 1.0 -2.37160983252 0.423349625447 0.662314464015                             
 INPUT CARD> H 1.0 2.35087209678 0.439376526747 0.497369009415                              
 INPUT CARD> H 1.0 1.51398940748 0.634781757847 2.04594231512                               
 INPUT CARD> H 1.0 1.46156646698 1.95409730375 0.865340288515                               
 INPUT CARD> H 1.0 0.87539713148 -2.04087239745 -0.00851644868476                           
 INPUT CARD> H 1.0 -0.91817486992 -2.04772754025 0.0563516521152                            
 INPUT CARD> H 1.0 0.0327168204798 -1.86302787675 1.53912101072                             
 INPUT CARD> $END                                                                           
 INPUT CARD>!                                                                               
  300000000 WORDS OF MEMORY AVAILABLE

     BASIS OPTIONS
     -------------
     GBASIS=             IGAUSS=       0      POLAR=NONE    
     NDFUNC=       0     NFFUNC=       0     DIFFSP=       F
     NPFUNC=       0      DIFFS=       F     BASNAM=METAL   

 USING BASNAM FOR ATOM CUSTOMIZED BASIS CONSTRUCTION
     ----------------
     ATOM  BASIS NAME
     ----------------
       1   METAL   
       2   LIGP    
       3   LIGO    
       4   LIGC    
       5   LIGC    
       6   LIGC    
       7   LIGH    
       8   LIGH    
       9   LIGH    
      10   LIGH    
      11   LIGH    
      12   LIGH    
      13   LIGH    
      14   LIGH    
      15   LIGH    
 NOW LOCATING ALL   15 BASIS SETS IN YOUR INPUT FILE...
 FOUND BASIS SET  $METAL 
  SBKJC                        
                               
  $END                         
 FOUND BASIS SET  $LIGP  
  CCT                          
                               
  $END                         
 FOUND BASIS SET  $LIGO  
  CCT                          
                               
  $END                         
 FOUND BASIS SET  $LIGC  
  CCT                          
                               
  $END                         
 FOUND BASIS SET  $LIGH  
  CCT                          
                               
  $END                         
    5 UNIQUE ATOM CUSTOMIZED BASIS SETS WERE FOUND.

     SEARCHING FOR $MCP
     $MCP GROUP NOT FOUND


     RUN TITLE
     ---------
                                                                                 

 THE POINT GROUP OF THE MOLECULE IS C1      
 THE ORDER OF THE PRINCIPAL AXIS IS     0

 ATOM      ATOMIC                      COORDINATES (BOHR)
           CHARGE         X                   Y                   Z
 LA         57.0    -0.3286901399        2.1432672524       -7.6515315853
 P          15.0    -0.0334922706        0.2808113838        0.6534447656
 O           8.0    -0.1503010017        1.0069214357       -2.5836849682
 C           6.0    -2.7726347756        1.6271575558        2.0436724757
 C           6.0     2.7869747052        1.6466006999        1.8485286218
 C           6.0    -0.0128376045       -3.0645328282        0.8929916346
 H           1.0    -2.7759392767        3.6734153504        1.8294315986
 H           1.0    -2.7032202338        1.1807990286        4.0616967302
 H           1.0    -4.4816927332        0.8000147891        1.2515928547
 H           1.0     4.4425040951        0.8303012410        0.9398911426
 H           1.0     2.8610251285        1.1995635843        3.8662703623
 H           1.0     2.7619601354        3.6927084574        1.6352560314
 H           1.0     1.6542607089       -3.8566896071       -0.0160937544
 H           1.0    -1.7350989130       -3.8696439486        0.1064891815
 H           1.0     0.0618258259       -3.5206121945        2.9085169722

          INTERNUCLEAR DISTANCES (ANGS.)
          ------------------------------

                1 LA         2 P          3 O          4 C          5 C     

   1 LA      0.0000000    4.5066679    2.7500000 *  5.2980188    5.2971988  
   2 P       4.5066679    0.0000000    1.7566683 *  1.7747790 *  1.7748072 *
   3 O       2.7500000 *  1.7566683 *  0.0000000    2.8336325 *  2.8340046 *
   4 C       5.2980188    1.7747790 *  2.8336325 *  0.0000000    2.9438486 *
   5 C       5.2971988    1.7748072 *  2.8340046 *  2.9438486 *  0.0000000  
   6 C       5.2978498    1.7748464 *  2.8340846 *  2.9440764 *  2.9438040 *
   7 H       5.2444387    2.3909047 *  3.0619096    1.0887532 *  3.1330848  
   8 H       6.3449313    2.3399932 *  3.7682744    1.0943196 *  3.1421422  
   9 H       5.2470635    2.3909116 *  3.0634345    1.0886701 *  3.8852771  
  10 H       5.2466188    2.3911865 *  3.0646921    3.8854564    1.0887099 *
  11 H       6.3440523    2.3394534 *  3.7682147    3.1414960    1.0943364 *
  12 H       5.2438585    2.3912459 *  3.0625687    3.1335625    1.0887001 *
  13 H       5.2447709    2.3910209 *  3.0630030    3.8854953    3.1327142  
  14 H       5.2471326    2.3913253 *  3.0641835    3.1326214    3.8855020  
  15 H       6.3445386    2.3394936 *  3.7682415    3.1432263    3.1418203  

                6 C          7 H          8 H          9 H         10 H     

   1 LA      5.2978498    5.2444387    6.3449313    5.2470635    5.2466188  
   2 P       1.7748464 *  2.3909047 *  2.3399932 *  2.3909116 *  2.3911865 *
   3 O       2.8340846 *  3.0619096    3.7682744    3.0634345    3.0646921  
   4 C       2.9440764 *  1.0887532 *  1.0943196 *  1.0886701 *  3.8854564  
   5 C       2.9438040 *  3.1330848    3.1421422    3.8852771    1.0887099 *
   6 C       0.0000000    3.8854584    3.1441187    3.1321746    3.1316387  
   7 H       3.8854584    0.0000000    1.7710790 *  1.7945214 *  4.1323459  
   8 H       3.1441187    1.7710790 *  0.0000000    1.7713330 *  4.1306308  
   9 H       3.1321746    1.7945214 *  1.7713330 *  0.0000000    4.7253888  
  10 H       3.1316387    4.1323459    4.1306308    4.7253888    0.0000000  
  11 H       3.1432412    3.4312574    2.9463043 *  4.1300134    1.7710548 *
  12 H       3.8854285    2.9323490 *  3.4321337    4.1325112    1.7946159 *
  13 H       1.0887641 *  4.7252629    4.1327458    4.1310360    2.9299456 *
  14 H       1.0887395 *  4.1312995    3.4330473    2.9301683 *  4.1312045  
  15 H       1.0942492 *  4.1320364    2.9500657 *  3.4317777    3.4293086  

               11 H         12 H         13 H         14 H         15 H     

   1 LA      6.3440523    5.2438585    5.2447709    5.2471326    6.3445386  
   2 P       2.3394534 *  2.3912459 *  2.3910209 *  2.3913253 *  2.3394936 *
   3 O       3.7682147    3.0625687    3.0630030    3.0641835    3.7682415  
   4 C       3.1414960    3.1335625    3.8854953    3.1326214    3.1432263  
   5 C       1.0943364 *  1.0887001 *  3.1327142    3.8855020    3.1418203  
   6 C       3.1432412    3.8854285    1.0887641 *  1.0887395 *  1.0942492 *
   7 H       3.4312574    2.9323490 *  4.7252629    4.1312995    4.1320364  
   8 H       2.9463043 *  3.4321337    4.1327458    3.4330473    2.9500657 *
   9 H       4.1300134    4.1325112    4.1310360    2.9301683 *  3.4317777  
  10 H       1.7710548 *  1.7946159 *  2.9299456 *  4.1312045    3.4293086  
  11 H       0.0000000    1.7712038 *  3.4333258    4.1315554    2.9478957 *
  12 H       1.7712038 *  0.0000000    4.1312229    4.7256993    4.1311060  
  13 H       3.4333258    4.1312229    0.0000000    1.7947578 *  1.7711354 *
  14 H       4.1315554    4.7256993    1.7947578 *  0.0000000    1.7711335 *
  15 H       2.9478957 *  4.1311060    1.7711354 *  1.7711335 *  0.0000000  

  * ... LESS THAN  3.000


     ATOMIC BASIS SET
     ----------------
 THE CONTRACTED PRIMITIVE FUNCTIONS HAVE BEEN UNNORMALIZED
 THE CONTRACTED BASIS FUNCTIONS ARE NOW NORMALIZED TO UNITY

  SHELL TYPE  PRIMITIVE        EXPONENT          CONTRACTION COEFFICIENT(S)

 LA        

      1   L       1             9.1730000   -0.054833023521   -0.009797991527
      1   L       2             3.1200000    0.676604290237    0.231261800020
      1   L       3             2.1040000   -1.034429443730   -0.601214480110
      1   L       4             1.3200000   -0.518907222591    0.195188831214
      1   L       5             0.4960000    1.631603699894    1.076136069429

      2   D       6             1.2380000   -0.053797021791
      2   D       7             0.6061000    0.380144153981
      2   D       8             0.2518000    0.720349291785

      3   D       9             0.0978700    1.000000000000

      4   L      10             0.6182000   -0.107095028128   -0.051868986063
      4   L      11             0.0454600    1.033448271434    1.008107729120

      5   L      12             0.0177500    1.000000000000    1.000000000000

      6   L      13             0.2004000    1.000000000000    1.000000000000

      7   D      14             0.0353600    1.000000000000

 P         

      8   S      15        312400.0000000    0.000057689641
      8   S      16         46800.0000000    0.000448246591
      8   S      17         10650.0000000    0.002349131061
      8   S      18          3018.0000000    0.009781571802
      8   S      19           986.8000000    0.034142936511
      8   S      20           357.4000000    0.100192955985
      8   S      21           139.6000000    0.234346168617
      8   S      22            57.6300000    0.382391849918
      8   S      23            24.6000000    0.318052941833
      8   S      24            10.1200000    0.070770999093
      8   S      25             4.2830000   -0.001817789630
      8   S      26             1.8050000    0.002161561737
      8   S      27             0.2782000    0.000432249354

      9   S      28        312400.0000000   -0.000016380204
      9   S      29         46800.0000000   -0.000127233535
      9   S      30         10650.0000000   -0.000668625166
      9   S      31          3018.0000000   -0.002795303744
      9   S      32           986.8000000   -0.009928227435
      9   S      33           357.4000000   -0.030244566456
      9   S      34           139.6000000   -0.077884705328
      9   S      35            57.6300000   -0.156724571545
      9   S      36            24.6000000   -0.198042753651
      9   S      37            10.1200000    0.037971251521
      9   S      38             4.2830000    0.552751544147
      9   S      39             1.8050000    0.542611452452
      9   S      40             0.2782000   -0.009675942874

     10   S      41        312400.0000000    0.000006865735
     10   S      42         46800.0000000    0.000053281983
     10   S      43         10650.0000000    0.000280421002
     10   S      44          3018.0000000    0.001170789768
     10   S      45           986.8000000    0.004173591138
     10   S      46           357.4000000    0.012720496749
     10   S      47           139.6000000    0.033152766352
     10   S      48            57.6300000    0.067671246836
     10   S      49            24.6000000    0.089831018862
     10   S      50            10.1200000   -0.020305232360
     10   S      51             4.2830000   -0.313280408979
     10   S      52             1.8050000   -0.563687905527
     10   S      53             0.2782000    1.117494073734

     11   S      54             0.6158000    1.000000000000

     12   S      55             0.1055000    1.000000000000

     13   P      56           504.9000000    0.002433660431
     13   P      57           119.4000000    0.019305559477
     13   P      58            37.9600000    0.088473106893
     13   P      59            13.9500000    0.254701981099
     13   P      60             5.4570000    0.440199242653
     13   P      61             2.1770000    0.383632006272
     13   P      62             0.2877000   -0.003946337074

     14   P      63           504.9000000   -0.000954298933
     14   P      64           119.4000000   -0.007664025747
     14   P      65            37.9600000   -0.035465925259
     14   P      66            13.9500000   -0.106164716437
     14   P      67             5.4570000   -0.187210586037
     14   P      68             2.1770000   -0.181495819791
     14   P      69             0.2877000    0.991672644618

     15   P      70             0.8010000    1.000000000000

     16   P      71             0.0971400    1.000000000000

     17   D      72             0.6480000    1.000000000000

     18   D      73             0.2180000    1.000000000000

     19   F      74             0.4520000    1.000000000000

     20   D      75             3.1200000    1.000000000000

 O         

     21   S      76         15330.0000000    0.000520198307
     21   S      77          2299.0000000    0.004023344781
     21   S      78           522.4000000    0.020729083329
     21   S      79           147.3000000    0.081082327080
     21   S      80            47.5500000    0.236226352118
     21   S      81            16.7600000    0.443518209420
     21   S      82             6.2070000    0.358670588689
     21   S      83             0.6882000   -0.008349797237

     22   S      84         15330.0000000   -0.000197236012
     22   S      85          2299.0000000   -0.001535010700
     22   S      86           522.4000000   -0.007951183914
     22   S      87           147.3000000   -0.032113452892
     22   S      88            47.5500000   -0.100269643049
     22   S      89            16.7600000   -0.234047111838
     22   S      90             6.2070000   -0.301410927756
     22   S      91             0.6882000    1.034919649508

     23   S      92             1.7520000    1.000000000000

     24   S      93             0.2384000    1.000000000000

     25   P      94            34.4600000    0.041163489568
     25   P      95             7.7490000    0.257762835858
     25   P      96             2.2800000    0.802419274427

     26   P      97             0.7156000    1.000000000000

     27   P      98             0.2140000    1.000000000000

     28   D      99             2.3140000    1.000000000000

     29   D     100             0.6450000    1.000000000000

     30   F     101             1.4280000    1.000000000000

 C         

     31   S     102          8236.0000000    0.000542430189
     31   S     103          1235.0000000    0.004196427901
     31   S     104           280.8000000    0.021540914108
     31   S     105            79.2700000    0.083614949614
     31   S     106            25.5900000    0.239871618922
     31   S     107             8.9970000    0.443751820060
     31   S     108             3.3190000    0.353579696469
     31   S     109             0.3643000   -0.009176366076

     32   S     110          8236.0000000   -0.000196392234
     32   S     111          1235.0000000   -0.001525950274
     32   S     112           280.8000000   -0.007890449028
     32   S     113            79.2700000   -0.031514870532
     32   S     114            25.5900000   -0.096910008320
     32   S     115             8.9970000   -0.220541526288
     32   S     116             3.3190000   -0.296069112937
     32   S     117             0.3643000    1.040503432950

     33   S     118             0.9059000    1.000000000000

     34   S     119             0.1285000    1.000000000000

     35   P     120            18.7100000    0.039426387165
     35   P     121             4.1330000    0.244088984924
     35   P     122             1.2000000    0.815492008943

     36   P     123             0.3827000    1.000000000000

     37   P     124             0.1209000    1.000000000000

     38   D     125             1.0970000    1.000000000000

     39   D     126             0.3180000    1.000000000000

     40   F     127             0.7610000    1.000000000000

 C         

     41   S     128          8236.0000000    0.000542430189
     41   S     129          1235.0000000    0.004196427901
     41   S     130           280.8000000    0.021540914108
     41   S     131            79.2700000    0.083614949614
     41   S     132            25.5900000    0.239871618922
     41   S     133             8.9970000    0.443751820060
     41   S     134             3.3190000    0.353579696469
     41   S     135             0.3643000   -0.009176366076

     42   S     136          8236.0000000   -0.000196392234
     42   S     137          1235.0000000   -0.001525950274
     42   S     138           280.8000000   -0.007890449028
     42   S     139            79.2700000   -0.031514870532
     42   S     140            25.5900000   -0.096910008320
     42   S     141             8.9970000   -0.220541526288
     42   S     142             3.3190000   -0.296069112937
     42   S     143             0.3643000    1.040503432950

     43   S     144             0.9059000    1.000000000000

     44   S     145             0.1285000    1.000000000000

     45   P     146            18.7100000    0.039426387165
     45   P     147             4.1330000    0.244088984924
     45   P     148             1.2000000    0.815492008943

     46   P     149             0.3827000    1.000000000000

     47   P     150             0.1209000    1.000000000000

     48   D     151             1.0970000    1.000000000000

     49   D     152             0.3180000    1.000000000000

     50   F     153             0.7610000    1.000000000000

 C         

     51   S     154          8236.0000000    0.000542430189
     51   S     155          1235.0000000    0.004196427901
     51   S     156           280.8000000    0.021540914108
     51   S     157            79.2700000    0.083614949614
     51   S     158            25.5900000    0.239871618922
     51   S     159             8.9970000    0.443751820060
     51   S     160             3.3190000    0.353579696469
     51   S     161             0.3643000   -0.009176366076

     52   S     162          8236.0000000   -0.000196392234
     52   S     163          1235.0000000   -0.001525950274
     52   S     164           280.8000000   -0.007890449028
     52   S     165            79.2700000   -0.031514870532
     52   S     166            25.5900000   -0.096910008320
     52   S     167             8.9970000   -0.220541526288
     52   S     168             3.3190000   -0.296069112937
     52   S     169             0.3643000    1.040503432950

     53   S     170             0.9059000    1.000000000000

     54   S     171             0.1285000    1.000000000000

     55   P     172            18.7100000    0.039426387165
     55   P     173             4.1330000    0.244088984924
     55   P     174             1.2000000    0.815492008943

     56   P     175             0.3827000    1.000000000000

     57   P     176             0.1209000    1.000000000000

     58   D     177             1.0970000    1.000000000000

     59   D     178             0.3180000    1.000000000000

     60   F     179             0.7610000    1.000000000000

 H         

     61   S     180            33.8700000    0.025494863235
     61   S     181             5.0950000    0.190362765893
     61   S     182             1.1590000    0.852162022245

     62   S     183             0.3258000    1.000000000000

     63   S     184             0.1027000    1.000000000000

     64   P     185             1.4070000    1.000000000000

     65   P     186             0.3880000    1.000000000000

     66   D     187             1.0570000    1.000000000000

 H         

     67   S     188            33.8700000    0.025494863235
     67   S     189             5.0950000    0.190362765893
     67   S     190             1.1590000    0.852162022245

     68   S     191             0.3258000    1.000000000000

     69   S     192             0.1027000    1.000000000000

     70   P     193             1.4070000    1.000000000000

     71   P     194             0.3880000    1.000000000000

     72   D     195             1.0570000    1.000000000000

 H         

     73   S     196            33.8700000    0.025494863235
     73   S     197             5.0950000    0.190362765893
     73   S     198             1.1590000    0.852162022245

     74   S     199             0.3258000    1.000000000000

     75   S     200             0.1027000    1.000000000000

     76   P     201             1.4070000    1.000000000000

     77   P     202             0.3880000    1.000000000000

     78   D     203             1.0570000    1.000000000000

 H         

     79   S     204            33.8700000    0.025494863235
     79   S     205             5.0950000    0.190362765893
     79   S     206             1.1590000    0.852162022245

     80   S     207             0.3258000    1.000000000000

     81   S     208             0.1027000    1.000000000000

     82   P     209             1.4070000    1.000000000000

     83   P     210             0.3880000    1.000000000000

     84   D     211             1.0570000    1.000000000000

 H         

     85   S     212            33.8700000    0.025494863235
     85   S     213             5.0950000    0.190362765893
     85   S     214             1.1590000    0.852162022245

     86   S     215             0.3258000    1.000000000000

     87   S     216             0.1027000    1.000000000000

     88   P     217             1.4070000    1.000000000000

     89   P     218             0.3880000    1.000000000000

     90   D     219             1.0570000    1.000000000000

 H         

     91   S     220            33.8700000    0.025494863235
     91   S     221             5.0950000    0.190362765893
     91   S     222             1.1590000    0.852162022245

     92   S     223             0.3258000    1.000000000000

     93   S     224             0.1027000    1.000000000000

     94   P     225             1.4070000    1.000000000000

     95   P     226             0.3880000    1.000000000000

     96   D     227             1.0570000    1.000000000000

 H         

     97   S     228            33.8700000    0.025494863235
     97   S     229             5.0950000    0.190362765893
     97   S     230             1.1590000    0.852162022245

     98   S     231             0.3258000    1.000000000000

     99   S     232             0.1027000    1.000000000000

    100   P     233             1.4070000    1.000000000000

    101   P     234             0.3880000    1.000000000000

    102   D     235             1.0570000    1.000000000000

 H         

    103   S     236            33.8700000    0.025494863235
    103   S     237             5.0950000    0.190362765893
    103   S     238             1.1590000    0.852162022245

    104   S     239             0.3258000    1.000000000000

    105   S     240             0.1027000    1.000000000000

    106   P     241             1.4070000    1.000000000000

    107   P     242             0.3880000    1.000000000000

    108   D     243             1.0570000    1.000000000000

 H         

    109   S     244            33.8700000    0.025494863235
    109   S     245             5.0950000    0.190362765893
    109   S     246             1.1590000    0.852162022245

    110   S     247             0.3258000    1.000000000000

    111   S     248             0.1027000    1.000000000000

    112   P     249             1.4070000    1.000000000000

    113   P     250             0.3880000    1.000000000000

    114   D     251             1.0570000    1.000000000000

 TOTAL NUMBER OF BASIS SET SHELLS             =  114
 NUMBER OF CARTESIAN GAUSSIAN BASIS FUNCTIONS =  354
 NOTE: THIS RUN WILL RESTRICT THE MO VARIATION SPACE TO SPHERICAL HARMONICS.
 THE NUMBER OF ORBITALS KEPT IN THE VARIATIONAL SPACE WILL BE PRINTED LATER.
 NUMBER OF ELECTRONS                          =  104
 CHARGE OF MOLECULE                           =    3
 SPIN MULTIPLICITY                            =    1
 NUMBER OF OCCUPIED ORBITALS (ALPHA)          =   52
 NUMBER OF OCCUPIED ORBITALS (BETA )          =   52
 TOTAL NUMBER OF ATOMS                        =   15
 THE NUCLEAR REPULSION ENERGY IS      593.9075106428
 NOTE THIS RUN IS USING CORE POTENTIALS, AND THE NUMBER OF ELECTRONS,
 OCCUPIED ORBITALS, AND NUCLEAR REPULSION ENERGY WILL BE ADJUSTED BELOW
 AFTER REMOVAL OF THE CORE CHARGES.

     $CONTRL OPTIONS
     ---------------
 SCFTYP=RHF          RUNTYP=OPTIMIZE     EXETYP=RUN     
 MPLEVL=       2     CITYP =NONE         CCTYP =NONE         VBTYP =NONE    
 DFTTYP=NONE         TDDFT =NONE    
 MULT  =       1     ICHARG=       3     NZVAR =      39     COORD =UNIQUE  
 PP    =READ         RELWFN=NONE         LOCAL =NONE         NUMGRD=       F
 ISPHER=       1     NOSYM =       0     MAXIT =     200     UNITS =ANGS    
 PLTORB=       F     MOLPLT=       F     AIMPAC=       F     FRIEND=        
 NPRINT=       7     IREST =       0     GEOM  =INPUT   
 NORMF =       0     NORMP =       0     ITOL  =      20     ICUT  =      11
 INTTYP=BEST         GRDTYP=BEST         QMTTOL= 1.0E-06

     $SYSTEM OPTIONS
     ---------------
  REPLICATED MEMORY=   300000000 WORDS (ON EVERY NODE).
 DISTRIBUTED MEMDDI=         300 MILLION WORDS IN AGGREGATE,
 MEMDDI DISTRIBUTED OVER  16 PROCESSORS IS    18750000 WORDS/PROCESSOR.
 TOTAL MEMORY REQUESTED ON EACH PROCESSOR=   318750000 WORDS.
 TIMLIM=      525600.00 MINUTES, OR     365.0 DAYS.
 PARALL= T  BALTYP=  DLB     KDIAG=    0  COREFL= F
 MXSEQ2=     300 MXSEQ3=     150  mem10=         0

          --------------
          ECP POTENTIALS
          --------------

 PARAMETERS FOR "LA-ECP  " ON ATOM    1 WITH ZCORE  46 AND LMAX  4 ARE
 FOR L= 4      COEFF    N           ZETA
    1       -2.85665    1        1.42345
 FOR L= 0      COEFF    N           ZETA
    1        8.85347    0       22.29739
    2      -68.41778    2        1.64320
    3      110.12463    2        1.85122
 FOR L= 1      COEFF    N           ZETA
    1        2.98675    0        1.77635
    2      -35.51815    2        3.98941
    3       53.65423    2        2.47524
 FOR L= 2      COEFF    N           ZETA
    1        1.67298    0        1.52169
    2       18.46625    2        1.52182
 FOR L= 3      COEFF    N           ZETA
    1       -4.64430    1        2.67762
    2      -14.43101    1       10.06608

 THE ECP RUN REMOVES   46 CORE ELECTRONS, AND THE SAME NUMBER OF PROTONS.
 NUMBER OF ELECTRONS KEPT IN THE CALCULATION IS =   58
 NUMBER OF OCCUPIED ORBITALS (ALPHA) KEPT IS    =   29
 NUMBER OF OCCUPIED ORBITALS (BETA ) KEPT IS    =   29
 THE ADJUSTED NUCLEAR REPULSION ENERGY=      320.0131121432
          ECP ANGULAR INTS.........     0.03 SECONDS

          ----------------
          PROPERTIES INPUT
          ----------------

     MOMENTS            FIELD           POTENTIAL          DENSITY
 IEMOM =       1   IEFLD =       0   IEPOT =       0   IEDEN =       0
 WHERE =COMASS     WHERE =NUCLEI     WHERE =NUCLEI     WHERE =NUCLEI  
 OUTPUT=BOTH       OUTPUT=BOTH       OUTPUT=BOTH       OUTPUT=BOTH    
 IEMINT=       0   IEFINT=       0                     IEDINT=       0
                                                       MORB  =       0
          EXTRAPOLATION IN EFFECT
          SOSCF IN EFFECT
 ORBITAL PRINTING OPTION: NPREO=     1   354     2     1

     -------------------------------
     INTEGRAL TRANSFORMATION OPTIONS
     -------------------------------
     NWORD  =            0
     CUTOFF = 1.0E-09     MPTRAN =       0
     DIRTRF =       T     AOINTS =DUP     

          ----------------------
          INTEGRAL INPUT OPTIONS
          ----------------------
 NOPK  =       1 NORDER=       0 SCHWRZ=       T

          -----------------------
          MP2 CONTROL INFORMATION
          -----------------------
          NACORE =       13  NBCORE =       13
          LMOMP2 =        F  AOINTS = DUP     
          METHOD =        2  NWORD  =               0
          MP2PRP =        F  OSPT   = NONE    
          CUTOFF = 1.00E-09  CPHFBS = BASISAO 
          CODE   = DDI     

          NUMBER OF CORE -A-  ORBITALS =    13
          NUMBER OF CORE -B-  ORBITALS =    13
          NUMBER OF OCC. -A-  ORBITALS =    29
          NUMBER OF OCC. -B-  ORBITALS =    29
          NUMBER OF MOLECULAR ORBITALS =   354
          NUMBER OF   BASIS  FUNCTIONS =   354

 
 
 -----------------------------------------------
  STATISTICS ON AUTOMATIC COORDINATE GENERATION 
 -----------------------------------------------
  NUMBER OF USER SPECIFIED BONDS                              0
  NUMBER OF BONDS                                            14
  NUMBER OF ANGLES                                           25
  NUMBER OF TORSIONS                                         30
  NUMBER OF EXTRA COORD.                                      0
  NUMBER OF EXTRA COORD. FOR CONSTRAINTS                      0
  NUMBER OF CONSTRAINED COORD.                                1
 
  TOTAL NUMBER OF PRIMITIVES                                 69
 -----------------------------------------------

   --- ENCODED Z MATRIX ---
 COORD  TYPE   I   J   K   L   M   N
    1      1    1   3
    2      1    2   4
    3      1    2   3
    4      1    2   6
    5      1    2   5
    6      1    4   8
    7      1    4   7
    8      1    4   9
    9      1    5  12
   10      1    5  11
   11      1    5  10
   12      1    6  15
   13      1    6  14
   14      1    6  13
   15      2    1   3   2
   16      2    2   5  11
   17      2    2   4   8
   18      2    2   6  13
   19      2    2   6  14
   20      2    2   4   9
   21      2    2   5  12
   22      2    2   5  10
   23      2    2   4   7
   24      2    2   6  15
   25      2    3   2   4
   26      2    3   2   5
   27      2    3   2   6
   28      2    4   2   6
   29      2    4   2   5
   30      2    5   2   6
   31      2    7   4   9
   32      2    7   4   8
   33      2    8   4   9
   34      2   10   5  11
   35      2   10   5  12
   36      2   11   5  12
   37      2   13   6  14
   38      2   13   6  15
   39      2   14   6  15
   40      3    1   3   2   5
   41      3    1   3   2   4
   42      3    1   3   2   6
   43      3    3   2   4   8
   44      3    3   2   6  15
   45      3    3   2   6  14
   46      3    3   2   4   7
   47      3    3   2   5  10
   48      3    3   2   6  13
   49      3    3   2   5  11
   50      3    3   2   5  12
   51      3    3   2   4   9
   52      3    4   2   6  15
   53      3    4   2   6  14
   54      3    4   2   5  10
   55      3    4   2   6  13
   56      3    4   2   5  12
   57      3    4   2   5  11
   58      3    5   2   6  15
   59      3    5   2   6  14
   60      3    5   2   4   7
   61      3    5   2   6  13
   62      3    5   2   4   9
   63      3    5   2   4   8
   64      3    6   2   4   7
   65      3    6   2   5  10
   66      3    6   2   5  11
   67      3    6   2   5  12
   68      3    6   2   4   9
   69      3    6   2   4   8

          INDEP./SYM. INTERNAL COORDINATES
          --------------------------------
 CRD  1=   1.0000 (  1)
 CRD  2=   0.1227 ( 20)  0.1189 ( 22)  0.1259 ( 24)  0.1657 ( 25)  0.2224 ( 26)
          -0.3881 ( 27)  0.2757 ( 28) -0.4813 ( 29)  0.2055 ( 30)  0.1712 ( 40)
          -0.1883 ( 41) -0.1426 ( 46)  0.1359 ( 50) -0.1122 ( 51)  0.1210 ( 52)
           0.1615 ( 53) -0.1380 ( 58) -0.1684 ( 61) -0.1282 ( 65) -0.1565 ( 66)
           0.1075 ( 68)  0.1461 ( 69)
 CRD  3=  -0.2459 (  2)  0.2230 (  5)  0.3614 ( 15)  0.1953 ( 18) -0.1858 ( 19)
          -0.1330 ( 20)  0.1561 ( 22) -0.3597 ( 28)  0.3965 ( 30)  0.1536 ( 40)
           0.1144 ( 41) -0.2679 ( 42)  0.1425 ( 44) -0.1140 ( 57) -0.1196 ( 63)
           0.1242 ( 64)  0.1342 ( 65)  0.1231 ( 67)  0.1365 ( 68)
 CRD  4=  -0.1645 (  2)  0.3854 (  4) -0.2210 (  5)  0.1328 ( 18)  0.1610 ( 19)
          -0.2225 ( 21) -0.2153 ( 23) -0.1039 ( 25) -0.1394 ( 26)  0.2433 ( 27)
          -0.1728 ( 29) -0.1208 ( 37)  0.1559 ( 40) -0.1724 ( 41)  0.2454 ( 43)
           0.1955 ( 46) -0.1509 ( 47) -0.2226 ( 49) -0.1825 ( 50)  0.1719 ( 51)
           0.1514 ( 54)  0.1198 ( 56) -0.1282 ( 60) -0.1517 ( 62) -0.1120 ( 68)
 CRD  5=  -0.3965 (  2) -0.3965 (  4) -0.3965 (  5) -0.2736 ( 16) -0.2736 ( 17)
          -0.2736 ( 24)  0.1192 ( 32)  0.1193 ( 33)  0.1192 ( 34)  0.1191 ( 36)
           0.1191 ( 38)  0.1192 ( 39) -0.1211 ( 54)  0.1211 ( 55) -0.1211 ( 59)
           0.1211 ( 62) -0.1211 ( 64)  0.1211 ( 67)
 CRD  6=  -0.2467 (  2) -0.3433 (  3) -0.2465 (  4) -0.2459 (  5)  0.2310 ( 16)
           0.2314 ( 17) -0.2133 ( 18) -0.2126 ( 19) -0.2127 ( 20) -0.2132 ( 21)
          -0.2121 ( 22) -0.2138 ( 23)  0.2310 ( 24)  0.1638 ( 31)  0.1635 ( 35)
           0.1637 ( 37)  0.1289 ( 54) -0.1289 ( 55)  0.1288 ( 59) -0.1288 ( 62)
           0.1289 ( 64) -0.1287 ( 67)
 CRD  7=  -0.3855 (  2)  0.3522 (  5)  0.1090 ( 13) -0.1074 ( 14) -0.1723 ( 15)
           0.1691 ( 16) -0.1841 ( 17) -0.3605 ( 18)  0.3776 ( 19)  0.2874 ( 21)
          -0.1305 ( 22) -0.2461 ( 23)  0.1890 ( 32) -0.1956 ( 36)  0.1221 ( 38)
          -0.1444 ( 39)
 CRD  8=  -0.1409 (  2)  0.3238 (  4) -0.1832 (  5) -0.1949 ( 16) -0.1472 ( 17)
          -0.3559 ( 20)  0.3403 ( 21) -0.3221 ( 22)  0.3676 ( 23)  0.3437 ( 24)
           0.1898 ( 33)  0.1983 ( 34) -0.1553 ( 38) -0.1335 ( 39)
 CRD  9=  -0.1094 (  2) -0.3071 ( 15) -0.4066 ( 16)  0.4474 ( 17)  0.1067 ( 18)
          -0.2940 ( 20)  0.1905 ( 21)  0.2817 ( 22) -0.2258 ( 23)  0.2057 ( 31)
          -0.1872 ( 35) -0.1118 ( 53) -0.1017 ( 55)  0.1114 ( 56) -0.1116 ( 59)
           0.1009 ( 60) -0.1015 ( 61)  0.1090 ( 67)
 CRD 10=  -0.3704 ( 18)  0.3708 ( 19) -0.3714 ( 20) -0.3698 ( 21)  0.3711 ( 22)
           0.3703 ( 23) -0.1315 ( 32)  0.1312 ( 33) -0.1307 ( 34)  0.1314 ( 36)
           0.1311 ( 38) -0.1311 ( 39)
 CRD 11=   0.1004 ( 11)  0.1411 ( 12) -0.2936 ( 16) -0.2186 ( 17) -0.2812 ( 18)
          -0.2455 ( 19)  0.3002 ( 20)  0.3213 ( 22)  0.5115 ( 24)  0.1157 ( 32)
          -0.1333 ( 35)  0.1236 ( 36)  0.2322 ( 37) -0.1074 ( 39)
 CRD 12=   0.7678 (  3)  0.1064 (  6)  0.1052 ( 10)  0.1057 ( 12)  0.2239 ( 16)
           0.2270 ( 17) -0.1104 ( 18) -0.1075 ( 19) -0.1087 ( 20) -0.1082 ( 21)
          -0.1088 ( 22) -0.1104 ( 23)  0.2252 ( 24)  0.1160 ( 31)  0.1150 ( 35)
           0.1154 ( 37)
 CRD 13=   0.1606 (  2) -0.1455 (  5)  0.1332 (  6) -0.1216 ( 10)  0.3638 ( 15)
          -0.2641 ( 16)  0.2893 ( 17) -0.2686 ( 18)  0.2791 ( 19)  0.2036 ( 21)
          -0.1112 ( 22) -0.1677 ( 23)  0.2046 ( 25) -0.1860 ( 26) -0.1310 ( 28)
           0.1448 ( 30) -0.1686 ( 33)  0.1728 ( 34)  0.1166 ( 38)  0.1053 ( 52)
           0.1294 ( 53) -0.1037 ( 54)  0.1287 ( 55) -0.1105 ( 56)  0.1228 ( 59)
           0.1221 ( 61)
 CRD 14=   0.2089 ( 43)  0.2088 ( 44)  0.1810 ( 45)  0.1812 ( 46)  0.1808 ( 47)
           0.1810 ( 48)  0.2086 ( 49)  0.1808 ( 50)  0.1812 ( 51)  0.2088 ( 52)
           0.1811 ( 53)  0.1809 ( 54)  0.1811 ( 55)  0.1809 ( 56)  0.2087 ( 57)
           0.2088 ( 58)  0.1810 ( 59)  0.1811 ( 60)  0.1810 ( 61)  0.1811 ( 62)
           0.2088 ( 63)  0.1811 ( 64)  0.1809 ( 65)  0.2087 ( 66)  0.1808 ( 67)
           0.1812 ( 68)  0.2088 ( 69)
 CRD 15=   0.1046 (  7)  0.1310 (  9) -0.1958 ( 13) -0.1920 ( 14) -0.1030 ( 38)
          -0.1091 ( 39) -0.2657 ( 43) -0.2449 ( 46)  0.2428 ( 47)  0.2413 ( 49)
           0.2183 ( 50) -0.2631 ( 51)  0.1742 ( 54)  0.1497 ( 56)  0.1727 ( 57)
          -0.1724 ( 60) -0.1906 ( 62) -0.1933 ( 63) -0.1860 ( 64)  0.1924 ( 65)
           0.1909 ( 66)  0.1678 ( 67) -0.2042 ( 68) -0.2068 ( 69)
 CRD 16=   0.3950 (  6)  0.3471 (  7)  0.3086 (  8) -0.3169 (  9) -0.3449 ( 10)
          -0.2577 ( 11)  0.1070 ( 16) -0.1223 ( 17) -0.1761 ( 20)  0.1159 ( 21)
           0.1642 ( 22) -0.1438 ( 23)  0.1833 ( 31)  0.1214 ( 32)  0.1399 ( 33)
          -0.1281 ( 34) -0.1605 ( 35) -0.1006 ( 36)
 CRD 17=   0.1726 (  6)  0.1825 (  8)  0.1542 (  9)  0.2591 ( 10)  0.2445 ( 11)
          -0.4313 ( 12) -0.3239 ( 13) -0.3362 ( 14)  0.1617 ( 18)  0.1708 ( 19)
          -0.1312 ( 21) -0.1019 ( 23)  0.1231 ( 24)  0.1169 ( 35) -0.1942 ( 37)
          -0.1293 ( 38) -0.1343 ( 39) -0.1012 ( 54)  0.1059 ( 60)  0.1106 ( 62)
           0.1044 ( 63)  0.1027 ( 68)
 CRD 18=  -0.1007 (  2) -0.1008 (  4) -0.1007 (  5) -0.2692 (  6) -0.3024 (  7)
          -0.3023 (  8) -0.3026 (  9) -0.2691 ( 10) -0.3024 ( 11) -0.2695 ( 12)
          -0.3028 ( 13) -0.3027 ( 14)  0.1121 ( 16)  0.1121 ( 17)  0.1014 ( 18)
           0.1015 ( 19)  0.1013 ( 20)  0.1013 ( 21)  0.1014 ( 22)  0.1012 ( 23)
           0.1122 ( 24) -0.1067 ( 31) -0.1049 ( 32) -0.1050 ( 33) -0.1049 ( 34)
          -0.1069 ( 35) -0.1049 ( 36) -0.1070 ( 37) -0.1049 ( 38) -0.1050 ( 39)
 CRD 19=  -0.1475 (  2)  0.1338 (  5) -0.1672 (  7) -0.2735 (  8)  0.1280 (  9)
           0.2714 ( 11) -0.1047 ( 13)  0.1461 ( 14) -0.1836 ( 15) -0.1097 ( 43)
           0.2569 ( 44)  0.2423 ( 45) -0.1042 ( 46) -0.1383 ( 47)  0.2424 ( 48)
          -0.1473 ( 49) -0.1394 ( 50) -0.1030 ( 51)  0.2136 ( 52)  0.1990 ( 53)
           0.1991 ( 55) -0.1072 ( 57)  0.2170 ( 58)  0.2024 ( 59)  0.2025 ( 61)
          -0.1044 ( 64) -0.1308 ( 65) -0.1398 ( 66) -0.1319 ( 67) -0.1032 ( 68)
          -0.1099 ( 69)
 CRD 20=   0.1949 (  6) -0.2674 (  8)  0.2755 ( 10) -0.2886 ( 11) -0.4805 ( 12)
           0.2124 ( 13)  0.2512 ( 14)  0.1484 ( 32) -0.1398 ( 35)  0.1600 ( 36)
           0.2438 ( 37) -0.1155 ( 38) -0.1369 ( 39) -0.1336 ( 45)  0.1302 ( 48)
          -0.1400 ( 53)  0.1238 ( 55) -0.1266 ( 59)  0.1372 ( 61)
 CRD 21=  -0.4075 (  6)  0.2856 (  7) -0.3073 (  9)  0.3680 ( 10) -0.2684 ( 13)
           0.2272 ( 14)  0.2104 ( 31) -0.1594 ( 33)  0.1700 ( 34) -0.1898 ( 35)
           0.1410 ( 38) -0.1173 ( 39)  0.1199 ( 44) -0.1023 ( 46)  0.1119 ( 47)
           0.1198 ( 51)  0.1232 ( 52)  0.1064 ( 54)  0.1224 ( 58) -0.1080 ( 60)
           0.1142 ( 62)  0.1140 ( 65)  0.1231 ( 68)
 CRD 22=  -0.3845 (  6)  0.1857 (  7)  0.1660 (  8)  0.1606 (  9) -0.3812 ( 10)
           0.1876 ( 11) -0.3767 ( 12)  0.1814 ( 13)  0.1624 ( 14)  0.1955 ( 31)
          -0.1036 ( 33)  0.1937 ( 35) -0.1048 ( 36)  0.1914 ( 37) -0.1014 ( 38)
          -0.1015 ( 45) -0.1036 ( 46) -0.1022 ( 47)  0.1049 ( 48)  0.1067 ( 50)
           0.1072 ( 51) -0.1174 ( 54)  0.1202 ( 55) -0.1168 ( 59)  0.1224 ( 62)
          -0.1188 ( 64)  0.1220 ( 67)
 CRD 23=  -0.3135 (  7)  0.3284 (  8)  0.3224 (  9) -0.3127 ( 11) -0.3142 ( 13)
           0.3253 ( 14) -0.1765 ( 32)  0.1680 ( 33) -0.1731 ( 34)  0.1678 ( 36)
           0.1684 ( 38) -0.1746 ( 39)  0.1256 ( 43)  0.1254 ( 44)  0.1242 ( 49)
           0.1261 ( 52)  0.1238 ( 57)  0.1249 ( 58)  0.1260 ( 63)  0.1248 ( 66)
           0.1250 ( 69)
 CRD 24=  -0.4061 (  7)  0.3164 (  8) -0.3897 (  9)  0.1212 ( 10)  0.2635 ( 11)
          -0.2049 ( 12)  0.1452 ( 13) -0.1749 ( 32)  0.2280 ( 33)  0.2196 ( 34)
          -0.1443 ( 36)  0.1185 ( 37)  0.1165 ( 43)  0.1281 ( 47) -0.1057 ( 49)
          -0.1265 ( 51)  0.1410 ( 54) -0.1398 ( 62)  0.1033 ( 63)  0.1352 ( 65)
          -0.1357 ( 68)  0.1073 ( 69)
 CRD 25=   0.2458 (  6) -0.2360 (  8) -0.1214 (  9) -0.2199 ( 10)  0.2834 ( 11)
          -0.3399 ( 13)  0.3597 ( 14) -0.1487 ( 31)  0.1578 ( 32)  0.1331 ( 35)
          -0.1855 ( 36)  0.2081 ( 38) -0.2224 ( 39) -0.1366 ( 45)  0.1302 ( 46)
          -0.1208 ( 48)  0.1429 ( 50) -0.1523 ( 53) -0.1365 ( 55)  0.1448 ( 56)
          -0.1539 ( 59)  0.1286 ( 60) -0.1381 ( 61)  0.1457 ( 64)  0.1602 ( 67)
 CRD 26=  -0.1148 (  2)  0.2688 (  4) -0.1541 (  5) -0.2386 (  7) -0.2618 (  9)
           0.1290 ( 12)  0.2571 ( 13)  0.2322 ( 14)  0.1580 ( 18)  0.1812 ( 19)
          -0.2103 ( 21) -0.1970 ( 23) -0.1171 ( 27) -0.1092 ( 28)  0.1906 ( 29)
           0.1561 ( 32)  0.1255 ( 35)  0.1620 ( 36) -0.2193 ( 37) -0.1199 ( 39)
          -0.1344 ( 40)  0.1489 ( 41) -0.1389 ( 43)  0.1262 ( 49) -0.1452 ( 54)
          -0.1230 ( 56)  0.1291 ( 60)  0.1457 ( 62)  0.1020 ( 68)
 CRD 27=   0.4667 (  3) -0.2684 (  6) -0.2679 ( 10) -0.2681 ( 12) -0.1524 ( 16)
          -0.1528 ( 17) -0.1526 ( 24)  0.1599 ( 32)  0.1605 ( 33)  0.1599 ( 34)
           0.1596 ( 36)  0.1596 ( 38)  0.1603 ( 39) -0.1010 ( 52)  0.1758 ( 54)
          -0.1756 ( 55)  0.1008 ( 57)  0.1008 ( 58)  0.1759 ( 59) -0.1758 ( 62)
          -0.1007 ( 63)  0.1756 ( 64) -0.1011 ( 66) -0.1758 ( 67)  0.1010 ( 69)
 CRD 28=   0.1304 (  6)  0.1624 (  7)  0.2604 (  8) -0.1262 (  9) -0.1189 ( 10)
          -0.2577 ( 11) -0.1345 ( 14) -0.2076 ( 15) -0.1447 ( 16)  0.1591 ( 17)
           0.2163 ( 20) -0.1366 ( 21) -0.2079 ( 22)  0.1631 ( 23) -0.1670 ( 25)
           0.1512 ( 26) -0.2280 ( 31) -0.1181 ( 32) -0.1944 ( 33)  0.1932 ( 34)
           0.2068 ( 35)  0.1042 ( 38) -0.1242 ( 42) -0.1101 ( 43)  0.2579 ( 44)
           0.1838 ( 45) -0.1153 ( 47)  0.1854 ( 48) -0.1478 ( 49)
 CRD 29=  -0.3201 (  2)  0.1840 (  3) -0.3202 (  4) -0.3197 (  5)  0.1796 (  7)
           0.1793 (  8)  0.1796 (  9)  0.1792 ( 11)  0.1794 ( 13)  0.1796 ( 14)
           0.1222 ( 16)  0.1223 ( 17)  0.1570 ( 18)  0.1569 ( 19)  0.1569 ( 20)
           0.1568 ( 21)  0.1568 ( 22)  0.1569 ( 23)  0.1224 ( 24) -0.2242 ( 31)
          -0.1057 ( 32) -0.1055 ( 33) -0.1052 ( 34) -0.2241 ( 35) -0.1055 ( 36)
          -0.2243 ( 37) -0.1056 ( 38) -0.1055 ( 39)
 CRD 30=  -0.2337 (  2)  0.5473 (  4) -0.3140 (  5)  0.1556 (  8)  0.1116 ( 10)
           0.1701 ( 11) -0.1949 ( 12) -0.1465 ( 13) -0.1630 ( 14)  0.1095 ( 16)
          -0.1883 ( 18) -0.1847 ( 19)  0.1246 ( 22) -0.1909 ( 24) -0.1532 ( 33)
          -0.1759 ( 34)  0.1720 ( 37)  0.2049 ( 38)  0.1923 ( 39)
 CRD 31=  -0.1876 (  3) -0.1767 (  6) -0.1765 ( 10) -0.1766 ( 12)  0.1279 ( 16)
           0.1278 ( 17)  0.1278 ( 24)  0.1001 ( 26)  0.1000 ( 27) -0.1360 ( 31)
          -0.1359 ( 35) -0.1359 ( 37)  0.1286 ( 45)  0.1280 ( 46)  0.1283 ( 47)
          -0.1278 ( 48) -0.1282 ( 50) -0.1285 ( 51)  0.1325 ( 52)  0.2612 ( 53)
          -0.2610 ( 56) -0.1332 ( 57) -0.1332 ( 58)  0.2609 ( 60) -0.2609 ( 61)
           0.1332 ( 63)  0.2612 ( 65)  0.1326 ( 66) -0.2612 ( 68) -0.1324 ( 69)
 CRD 32=  -0.4621 (  2)  0.4193 (  5)  0.1578 (  6)  0.1537 (  7) -0.1745 (  9)
          -0.1431 ( 10) -0.1948 ( 13)  0.1807 ( 14)  0.1222 ( 15) -0.1043 ( 16)
           0.1151 ( 17)  0.1139 ( 20) -0.1091 ( 21) -0.1023 ( 22)  0.1189 ( 23)
           0.1012 ( 25) -0.2001 ( 32)  0.2082 ( 36) -0.1303 ( 38)  0.1561 ( 39)
           0.1027 ( 43) -0.2408 ( 44)  0.1380 ( 49) -0.1038 ( 52) -0.1019 ( 58)
 CRD 33=   0.2305 (  7) -0.2309 (  8) -0.2311 (  9)  0.2315 ( 11)  0.2313 ( 13)
          -0.2308 ( 14) -0.1771 ( 32)  0.1769 ( 33) -0.1772 ( 34)  0.1776 ( 36)
           0.1774 ( 38) -0.1771 ( 39)  0.1514 ( 43)  0.1515 ( 44) -0.1131 ( 45)
          -0.1134 ( 46) -0.1132 ( 47) -0.1136 ( 48)  0.1517 ( 49) -0.1137 ( 50)
          -0.1130 ( 51)  0.1516 ( 52) -0.1130 ( 53) -0.1131 ( 54) -0.1135 ( 55)
          -0.1136 ( 56)  0.1518 ( 57)  0.1515 ( 58) -0.1131 ( 59) -0.1135 ( 60)
          -0.1136 ( 61) -0.1131 ( 62)  0.1513 ( 63) -0.1135 ( 64) -0.1131 ( 65)
           0.1517 ( 66) -0.1136 ( 67) -0.1131 ( 68)  0.1513 ( 69)
 CRD 34=   0.1283 (  6)  0.1174 (  7) -0.2307 (  8)  0.1572 ( 10) -0.2301 ( 11)
          -0.2847 ( 12)  0.1124 ( 13)  0.1389 ( 14)  0.1075 ( 20)  0.1070 ( 22)
           0.1382 ( 29) -0.1865 ( 32)  0.1130 ( 35) -0.1886 ( 36) -0.2046 ( 37)
           0.1098 ( 38)  0.1300 ( 39)  0.1071 ( 43)  0.1789 ( 45) -0.1750 ( 46)
          -0.1647 ( 48)  0.1855 ( 50)  0.1416 ( 53) -0.2021 ( 55)  0.1657 ( 56)
          -0.1183 ( 57)  0.2160 ( 59) -0.1592 ( 60) -0.1277 ( 61)  0.1228 ( 63)
          -0.1922 ( 64)  0.2070 ( 67)
 CRD 35=  -0.2880 (  6)  0.1938 (  7) -0.1981 (  9)  0.2675 ( 10) -0.1532 ( 13)
           0.1346 ( 14)  0.1004 ( 17)  0.1070 ( 30) -0.2084 ( 31)  0.1706 ( 33)
          -0.1724 ( 34)  0.1934 ( 35) -0.1186 ( 38)  0.1011 ( 39)  0.1311 ( 46)
          -0.2149 ( 47)  0.1085 ( 48)  0.1090 ( 50) -0.2174 ( 51) -0.2478 ( 54)
           0.1209 ( 55)  0.1173 ( 61) -0.2508 ( 62)  0.1554 ( 64) -0.1941 ( 65)
           0.1298 ( 67) -0.1932 ( 68)
 CRD 36=   0.1430 (  4)  0.2431 (  7) -0.1467 (  8)  0.2411 (  9) -0.1136 ( 10)
          -0.1122 ( 11)  0.1993 ( 12) -0.1305 ( 13) -0.1155 ( 21) -0.1218 ( 23)
          -0.1091 ( 24)  0.1226 ( 29) -0.1175 ( 32)  0.1764 ( 33)  0.1728 ( 34)
          -0.1008 ( 35)  0.1767 ( 37)  0.1211 ( 43) -0.1232 ( 45)  0.1814 ( 47)
           0.1439 ( 48) -0.1096 ( 49) -0.1729 ( 51) -0.1680 ( 53) -0.1065 ( 56)
          -0.2453 ( 57) -0.1019 ( 59)  0.1652 ( 61)  0.2638 ( 63) -0.2076 ( 66)
           0.2356 ( 69)
 CRD 37=  -0.2302 (  2)  0.2091 (  5) -0.1117 (  6)  0.1657 (  8)  0.1014 ( 10)
          -0.1872 ( 11)  0.1930 ( 13) -0.2073 ( 14)  0.1436 ( 18) -0.1423 ( 19)
           0.1188 ( 25) -0.1076 ( 26)  0.1370 ( 28) -0.1511 ( 30) -0.1219 ( 31)
           0.1107 ( 35) -0.1126 ( 36)  0.1484 ( 38) -0.1533 ( 39)  0.1513 ( 42)
          -0.2084 ( 45)  0.1706 ( 46) -0.1934 ( 48)  0.1920 ( 50)  0.2691 ( 52)
           0.1062 ( 56) -0.1191 ( 57)  0.2763 ( 58)  0.1198 ( 60) -0.1213 ( 65)
          -0.1927 ( 66) -0.1312 ( 68) -0.1573 ( 69)
 CRD 38=   0.7161 ( 15) -0.2906 ( 25)  0.2636 ( 26)  0.2171 ( 28) -0.2393 ( 30)
           0.1353 ( 44)  0.1526 ( 45) -0.1126 ( 47)  0.1575 ( 48)  0.1142 ( 56)
           0.1020 ( 57)  0.1144 ( 60)
 CRD 39=   0.5775 ( 40)  0.5771 ( 41)  0.5774 ( 42)

 THE DETERMINANT OF THE G MATRIX IS 10**(   -13)


                     --------------------
                     INTERNAL COORDINATES
                     --------------------

                 - - ATOMS - -         COORDINATE      COORDINATE
 NO.   TYPE    I  J  K  L  M  N        (BOHR,RAD)       (ANG,DEG)
 ----------------------------------------------------------------
   1 STRETCH   1  3                     5.1967465       2.7500000
   2 STRETCH   2  4                     3.3538460       1.7747790
   3 STRETCH   2  3                     3.3196218       1.7566683
   4 STRETCH   2  6                     3.3539733       1.7748464
   5 STRETCH   2  5                     3.3538992       1.7748072
   6 STRETCH   4  8                     2.0679643       1.0943196
   7 STRETCH   4  7                     2.0574453       1.0887532
   8 STRETCH   4  9                     2.0572881       1.0886701
   9 STRETCH   5 12                     2.0573449       1.0887001
  10 STRETCH   5 11                     2.0679960       1.0943364
  11 STRETCH   5 10                     2.0573635       1.0887099
  12 STRETCH   6 15                     2.0678311       1.0942492
  13 STRETCH   6 14                     2.0574193       1.0887395
  14 STRETCH   6 13                     2.0574658       1.0887641
  15 BEND      1  3  2                  3.1407285     179.9504864
  16 BEND      2  5 11                  1.8647629     106.8430437
  17 BEND      2  4  8                  1.8654887     106.8846315
  18 BEND      2  6 13                  1.9363405     110.9441357
  19 BEND      2  6 14                  1.9367673     110.9685932
  20 BEND      2  4  9                  1.9363663     110.9456164
  21 BEND      2  5 12                  1.9367468     110.9674169
  22 BEND      2  5 10                  1.9366586     110.9623649
  23 BEND      2  4  7                  1.9362777     110.9405404
  24 BEND      2  6 15                  1.8648449     106.8477426
  25 BEND      3  2  4                  1.8625915     106.7186329
  26 BEND      3  2  5                  1.8629232     106.7376352
  27 BEND      3  2  6                  1.8629692     106.7402727
  28 BEND      4  2  6                  1.9560829     112.0752918
  29 BEND      4  2  5                  1.9558860     112.0640120
  30 BEND      5  2  6                  1.9557846     112.0582053
  31 BEND      7  4  9                  1.9373963     111.0046285
  32 BEND      7  4  8                  1.8926647     108.4417006
  33 BEND      8  4  9                  1.8931684     108.4705596
  34 BEND     10  5 11                  1.8926604     108.4414529
  35 BEND     10  5 12                  1.9375674     111.0144323
  36 BEND     11  5 12                  1.8929064     108.4555452
  37 BEND     13  6 14                  1.9376724     111.0204481
  38 BEND     13  6 15                  1.8928290     108.4511126
  39 BEND     14  6 15                  1.8928573     108.4527372
  40 TORSION   1  3  2  5               0.6078242      34.8257610
  41 TORSION   1  3  2  4               2.7021086     154.8194186
  42 TORSION   1  3  2  6              -1.4865386     -85.1723900
  43 TORSION   3  2  4  8              -3.1397635    -179.8951976
  44 TORSION   3  2  6 15               3.1406228     179.9444323
  45 TORSION   3  2  6 14              -1.0822197     -62.0066193
  46 TORSION   3  2  4  7              -1.0795371     -61.8529181
  47 TORSION   3  2  5 10              -1.0836507     -62.0886112
  48 TORSION   3  2  6 13               1.0805476      61.9108182
  49 TORSION   3  2  5 11               3.1395369     179.8822159
  50 TORSION   3  2  5 12               1.0791952      61.8333328
  51 TORSION   3  2  4  9               1.0825410      62.0250294
  52 TORSION   4  2  6 15              -1.1093065     -63.5585802
  53 TORSION   4  2  6 14               0.9510363      54.4903681
  54 TORSION   4  2  5 10              -3.1167730    -178.5779384
  55 TORSION   4  2  6 13               3.1138036     178.4078057
  56 TORSION   4  2  5 12              -0.9539271     -54.6559945
  57 TORSION   4  2  5 11               1.1064146      63.3928887
  58 TORSION   5  2  6 15               1.1071274      63.4337280
  59 TORSION   5  2  6 14              -3.1157151    -178.5173236
  60 TORSION   5  2  4  7               0.9537852      54.6478664
  61 TORSION   5  2  6 13              -0.9529478     -54.5998861
  62 TORSION   5  2  4  9               3.1158633     178.5258139
  63 TORSION   5  2  4  8              -1.1064412     -63.3944130
  64 TORSION   6  2  4  7              -3.1130207    -178.3629494
  65 TORSION   6  2  5 10               0.9498725      54.4236833
  66 TORSION   6  2  5 11              -1.1101252     -63.6054896
  67 TORSION   6  2  5 12               3.1127184     178.3456273
  68 TORSION   6  2  4  9              -0.9509427     -54.4850018
  69 TORSION   6  2  4  8               1.1099381      63.5947712

     ------------------------------------------
     THE POINT GROUP IS C1 , NAXIS= 0, ORDER= 1
     ------------------------------------------

 -- VARIATIONAL SPACE WILL BE RESTRICTED TO PURE SPHERICAL HARMONICS ONLY --
 AFTER EXCLUDING CONTAMINANT COMBINATIONS FROM THE CARTESIAN GAUSSIAN BASIS
 SET, THE NUMBER OF SPHERICAL HARMONICS KEPT IN THE VARIATION SPACE IS  316

     DIMENSIONS OF THE SYMMETRY SUBSPACES ARE
 A   =  316

 ..... DONE SETTING UP THE RUN .....
 CPU     0: STEP CPU TIME=     0.08 TOTAL CPU TIME=        0.1 (    0.0 MIN)
 TOTAL WALL CLOCK TIME=        0.2 SECONDS, CPU UTILIZATION IS  50.00%


          -----------------------------
          STATIONARY POINT LOCATION RUN
          -----------------------------


           ** GEOMETRY CONSTRAINTS ARE BEING APPLIED. **

          TRANSFORMING DISPLACEMENT FROM INTERNALS TO CARTESIANS
          THE ROOT MEAN SQUARE ERROR IN ITERATION   1 IS   0.00000000
 WARNING! THE RADIUS IN CARTESIANS IS    0.00000
 OBTAINING INITIAL HESSIAN, HESS=GUESS   
 DIAGONAL GUESS HESSIAN IN INTERNAL COORDS IS
     1  0.1655     2  0.4333     3  0.3624     4  0.4333     5  0.4333
     6  0.3435     7  0.3472     8  0.3473     9  0.3472    10  0.3435
    11  0.3472    12  0.3435    13  0.3472    14  0.3472    15  0.2567
    16  0.2409    17  0.2409    18  0.2412    19  0.2412    20  0.2412
    21  0.2412    22  0.2412    23  0.2412    24  0.2409    25  0.2785
    26  0.2785    27  0.2785    28  0.2914    29  0.2914    30  0.2914
    31  0.2035    32  0.2032    33  0.2033    34  0.2032    35  0.2035
    36  0.2032    37  0.2035    38  0.2032    39  0.2033    40  0.2500
    41  0.2500    42  0.2500    43  0.2500    44  0.2500    45  0.2500
    46  0.2500    47  0.2500    48  0.2500    49  0.2500    50  0.2500
    51  0.2500    52  0.2500    53  0.2500    54  0.2500    55  0.2500
    56  0.2500    57  0.2500    58  0.2500    59  0.2500    60  0.2500
    61  0.2500    62  0.2500    63  0.2500    64  0.2500    65  0.2500
    66  0.2500    67  0.2500    68  0.2500    69  0.2500
 TRANSFORMING HESSIAN TO SYMMETRY COORDINATES

          PARAMETERS CONTROLLING GEOMETRY SEARCH ARE
          METHOD =QA                  UPHESS =BFGS    
          NNEG   =         0          NFRZ   =         0
          NSTEP  =        50          IFOLOW =         1
          HESS   =GUESS               RESTAR =         F
          IHREP  =         0          HSSEND =         F
          NPRT   =         0          NPUN   =         0
          OPTTOL = 1.000E-04          RMIN   = 1.500E-03
          RMAX   = 1.000E-01          RLIM   = 7.000E-02
          DXMAX  = 3.000E-01          PURIFY =         F
          MOVIE  =         F          TRUPD  =         T
          TRMAX  = 5.000E-01          TRMIN  = 5.000E-02
          ITBMAT =         5          STPT   =         F
          STSTEP = 1.000E-02          PROJCT=          T

 BEGINNING GEOMETRY SEARCH POINT NSERCH=   0 ...

 COORDINATES OF ALL ATOMS ARE (ANGS)
   ATOM   CHARGE       X              Y              Z
 ------------------------------------------------------------
 LA         57.0  -0.1739353441   1.1341682690  -4.0490164368
 P          15.0  -0.0177233476   0.1485989956   0.3457881036
 O           8.0  -0.0795358706   0.5328399155  -1.3672273044
 C           6.0  -1.4672152437   0.8610547594   1.0814649790
 C           6.0   1.4748036082   0.8713436289   0.9781992912
 C           6.0  -0.0067933682  -1.6216810522   0.4725508568
 H           1.0  -1.4689639105   1.9438878305   0.9680935810
 H           1.0  -1.4304826474   0.6248519818   2.1493575029
 H           1.0  -2.3716098325   0.4233496254   0.6623144640
 H           1.0   2.3508720968   0.4393765267   0.4973690094
 H           1.0   1.5139894075   0.6347817578   2.0459423151
 H           1.0   1.4615664670   1.9540973038   0.8653402885
 H           1.0   0.8753971315  -2.0408723974  -0.0085164487
 H           1.0  -0.9181748699  -2.0477275402   0.0563516521
 H           1.0   0.0327168205  -1.8630278767   1.5391210107


                     --------------------
                     INTERNAL COORDINATES
                     --------------------

                 - - ATOMS - -         COORDINATE      COORDINATE
 NO.   TYPE    I  J  K  L  M  N        (BOHR,RAD)       (ANG,DEG)
 ----------------------------------------------------------------
   1 STRETCH   1  3                     5.1967465       2.7500000
   2 STRETCH   2  4                     3.3538460       1.7747790
   3 STRETCH   2  3                     3.3196218       1.7566683
   4 STRETCH   2  6                     3.3539733       1.7748464
   5 STRETCH   2  5                     3.3538992       1.7748072
   6 STRETCH   4  8                     2.0679643       1.0943196
   7 STRETCH   4  7                     2.0574453       1.0887532
   8 STRETCH   4  9                     2.0572881       1.0886701
   9 STRETCH   5 12                     2.0573449       1.0887001
  10 STRETCH   5 11                     2.0679960       1.0943364
  11 STRETCH   5 10                     2.0573635       1.0887099
  12 STRETCH   6 15                     2.0678311       1.0942492
  13 STRETCH   6 14                     2.0574193       1.0887395
  14 STRETCH   6 13                     2.0574658       1.0887641
  15 BEND      1  3  2                  3.1407285     179.9504864
  16 BEND      2  5 11                  1.8647629     106.8430437
  17 BEND      2  4  8                  1.8654887     106.8846315
  18 BEND      2  6 13                  1.9363405     110.9441357
  19 BEND      2  6 14                  1.9367673     110.9685932
  20 BEND      2  4  9                  1.9363663     110.9456164
  21 BEND      2  5 12                  1.9367468     110.9674169
  22 BEND      2  5 10                  1.9366586     110.9623649
  23 BEND      2  4  7                  1.9362777     110.9405404
  24 BEND      2  6 15                  1.8648449     106.8477426
  25 BEND      3  2  4                  1.8625915     106.7186329
  26 BEND      3  2  5                  1.8629232     106.7376352
  27 BEND      3  2  6                  1.8629692     106.7402727
  28 BEND      4  2  6                  1.9560829     112.0752918
  29 BEND      4  2  5                  1.9558860     112.0640120
  30 BEND      5  2  6                  1.9557846     112.0582053
  31 BEND      7  4  9                  1.9373963     111.0046285
  32 BEND      7  4  8                  1.8926647     108.4417006
  33 BEND      8  4  9                  1.8931684     108.4705596
  34 BEND     10  5 11                  1.8926604     108.4414529
  35 BEND     10  5 12                  1.9375674     111.0144323
  36 BEND     11  5 12                  1.8929064     108.4555452
  37 BEND     13  6 14                  1.9376724     111.0204481
  38 BEND     13  6 15                  1.8928290     108.4511126
  39 BEND     14  6 15                  1.8928573     108.4527372
  40 TORSION   1  3  2  5               0.6078242      34.8257610
  41 TORSION   1  3  2  4               2.7021086     154.8194186
  42 TORSION   1  3  2  6              -1.4865386     -85.1723900
  43 TORSION   3  2  4  8              -3.1397635    -179.8951976
  44 TORSION   3  2  6 15               3.1406228     179.9444323
  45 TORSION   3  2  6 14              -1.0822197     -62.0066193
  46 TORSION   3  2  4  7              -1.0795371     -61.8529181
  47 TORSION   3  2  5 10              -1.0836507     -62.0886112
  48 TORSION   3  2  6 13               1.0805476      61.9108182
  49 TORSION   3  2  5 11               3.1395369     179.8822159
  50 TORSION   3  2  5 12               1.0791952      61.8333328
  51 TORSION   3  2  4  9               1.0825410      62.0250294
  52 TORSION   4  2  6 15              -1.1093065     -63.5585802
  53 TORSION   4  2  6 14               0.9510363      54.4903681
  54 TORSION   4  2  5 10              -3.1167730    -178.5779384
  55 TORSION   4  2  6 13               3.1138036     178.4078057
  56 TORSION   4  2  5 12              -0.9539271     -54.6559945
  57 TORSION   4  2  5 11               1.1064146      63.3928887
  58 TORSION   5  2  6 15               1.1071274      63.4337280
  59 TORSION   5  2  6 14              -3.1157151    -178.5173236
  60 TORSION   5  2  4  7               0.9537852      54.6478664
  61 TORSION   5  2  6 13              -0.9529478     -54.5998861
  62 TORSION   5  2  4  9               3.1158633     178.5258139
  63 TORSION   5  2  4  8              -1.1064412     -63.3944130
  64 TORSION   6  2  4  7              -3.1130207    -178.3629494
  65 TORSION   6  2  5 10               0.9498725      54.4236833
  66 TORSION   6  2  5 11              -1.1101252     -63.6054896
  67 TORSION   6  2  5 12               3.1127184     178.3456273
  68 TORSION   6  2  4  9              -0.9509427     -54.4850018
  69 TORSION   6  2  4  8               1.1099381      63.5947712

          ********************
          1 ELECTRON INTEGRALS
          ********************
 TIME TO DO ORDINARY INTEGRALS=      0.01
 TIME TO DO      ECP INTEGRALS=      0.06
 ...... END OF ONE-ELECTRON INTEGRALS ......
 CPU     0: STEP CPU TIME=     0.08 TOTAL CPU TIME=        0.2 (    0.0 MIN)
 TOTAL WALL CLOCK TIME=        0.3 SECONDS, CPU UTILIZATION IS  57.14%

          -------------
          GUESS OPTIONS
          -------------
          GUESS =HUCKEL            NORB  =       0          NORDER=       0
          MIX   =       F          PRTMO =       F          PUNMO =       F
          TOLZ  = 1.0E-08          TOLE  = 1.0E-05
          SYMDEN=       F          PURIFY=       F

 INITIAL GUESS ORBITALS GENERATED BY HUCKEL   ROUTINE.
 HUCKEL GUESS REQUIRES    916545 WORDS.

 STATISTICS FOR GENERATION OF SYMMETRY ORBITAL -Q- MATRIX
 NUMBER OF CARTESIAN ATOMIC ORBITALS=        354
 NUMBER OF SPHERICAL CONTAMINANTS DROPPED=    38
 NUMBER OF LINEARLY DEPENDENT MOS DROPPED=     0
 TOTAL NUMBER OF MOS IN VARIATION SPACE=     316

 SYMMETRIES FOR INITIAL GUESS ORBITALS FOLLOW.   BOTH SET(S).
    29 ORBITALS ARE OCCUPIED (   13 CORE ORBITALS).
    14=A       15=A       16=A       17=A       18=A       19=A       20=A   
    21=A       22=A       23=A       24=A       25=A       26=A       27=A   
    28=A       29=A       30=A       31=A       32=A       33=A       34=A   
    35=A       36=A       37=A       38=A       39=A   
 ...... END OF INITIAL ORBITAL SELECTION ......
 CPU     0: STEP CPU TIME=     0.22 TOTAL CPU TIME=        0.4 (    0.0 MIN)
 TOTAL WALL CLOCK TIME=        0.8 SECONDS, CPU UTILIZATION IS  49.35%

                    ----------------------
                    AO INTEGRAL TECHNOLOGY
                    ----------------------
     S,P,L SHELL ROTATED AXIS INTEGRALS, REPROGRAMMED BY
        KAZUYA ISHIMURA (IMS) AND JOSE SIERRA (SYNSTAR).
     S,P,D,L SHELL ROTATED AXIS INTEGRALS PROGRAMMED BY
        KAZUYA ISHIMURA (INSTITUTE FOR MOLECULAR SCIENCE).
     S,P,D,F,G SHELL TO TOTAL QUARTET ANGULAR MOMENTUM SUM 5,
        ERIC PROGRAM BY GRAHAM FLETCHER (ELORET AND NASA ADVANCED
        SUPERCOMPUTING DIVISION, AMES RESEARCH CENTER).
     S,P,D,F,G,L SHELL GENERAL RYS QUADRATURE PROGRAMMED BY
        MICHEL DUPUIS (PACIFIC NORTHWEST NATIONAL LABORATORY).

          --------------------
          2 ELECTRON INTEGRALS
          --------------------

 DIRECT SCF METHOD SKIPS INTEGRAL STORAGE ON DISK.
 DIRECT TRANSFORMATION SKIPS AO INTEGRAL STORAGE ON DISK.
  ...... END OF TWO-ELECTRON INTEGRALS .....
 CPU     0: STEP CPU TIME=     0.01 TOTAL CPU TIME=        0.4 (    0.0 MIN)
 TOTAL WALL CLOCK TIME=        0.8 SECONDS, CPU UTILIZATION IS  50.00%

          --------------------------
                 RHF SCF CALCULATION
          --------------------------

     NUCLEAR ENERGY =       320.0131121432
     MAXIT =  200     NPUNCH=    2
     EXTRAP=T  DAMP=F  SHIFT=F  RSTRCT=F  DIIS=F  DEM=F  SOSCF=T
     DENSITY MATRIX CONV=  2.00E-06
     SOSCF WILL OPTIMIZE    8323 ORBITAL ROTATIONS, SOGTOL=   0.250
     MEMORY REQUIRED FOR RHF ITERS=    982670 WORDS.

 DIRECT SCF CALCULATION, SCHWRZ=T   FDIFF=F,  DIRTHR=  0.00E+00 NITDIR=10
 SCHWARZ INEQUALITY OVERHEAD:     62118 INTEGRALS, T=        0.00

                                                                                   NONZERO     BLOCKS
 ITER EX DEM     TOTAL ENERGY        E CHANGE  DENSITY CHANGE     ORB. GRAD      INTEGRALS    SKIPPED
   1  0  0     -563.4908195107  -563.4908195107   0.367782345   0.000000000     1409399310    4491398
          ---------------START SECOND ORDER SCF---------------
   2  1  0     -564.5451905884    -1.0543710778   0.108171046   0.061062718     1395591602    4822438
   3  2  0     -564.6111543223    -0.0659637339   0.046013316   0.024023372     1394086216    4825070
   4  3  0     -564.6333480608    -0.0221937385   0.013617272   0.005749266     1395430138    4809719
   5  4  0     -564.6340686514    -0.0007205907   0.004334712   0.003534407     1395596302    4808509
   6  5  0     -564.6345283933    -0.0004597419   0.001625309   0.000498629     1395675846    4806470
   7  6  0     -564.6345447726    -0.0000163793   0.000845372   0.000192203     1395683561    4806153
   8  7  0     -564.6345470681    -0.0000022955   0.000111574   0.000074774     1395689650    4806094
   9  8  0     -564.6345472307    -0.0000001626   0.000056354   0.000031440     1395691836    4806079
  10  9  0     -564.6345472580    -0.0000000272   0.000023659   0.000009956     1395692939    4806075
  11 10  0     -564.6345472621    -0.0000000041   0.000010249   0.000003931     1395692366    4806072
  12 11  0     -564.6345472630    -0.0000000009   0.000006472   0.000001639     1395692621    4806064
  13 12  0     -564.6345472631    -0.0000000001   0.000003286   0.000000613     1395692580    4806064
  14 13  0     -564.6345472631    -0.0000000000   0.000000758   0.000000146     1395692586    4806063

          -----------------
          DENSITY CONVERGED
          -----------------
     TIME TO FORM FOCK OPERATORS=      88.0 SECONDS (       6.3 SEC/ITER)
     FOCK TIME ON FIRST ITERATION=       6.4, LAST ITERATION=       6.3
     TIME TO SOLVE SCF EQUATIONS=       0.4 SECONDS (       0.0 SEC/ITER)

 FINAL RHF ENERGY IS     -564.6345472631 AFTER  14 ITERATIONS

          ------------
          EIGENVECTORS
          ------------

                      1          2          3          4          5
                  -80.4160   -20.9458   -11.5865   -11.5865   -11.5864
                     A          A          A          A          A   
    1  LA 1  S    0.000003  -0.000001   0.000000   0.000004   0.000005
    2  LA 1  X    0.000000   0.000000   0.000003  -0.000004   0.000003
    3  LA 1  Y   -0.000001  -0.000001   0.000005   0.000002  -0.000002
    4  LA 1  Z    0.000006   0.000005   0.000001   0.000002   0.000002
    5  LA 1 XX    0.000001  -0.000013  -0.000002  -0.000004  -0.000003
    6  LA 1 YY    0.000001  -0.000011   0.000002  -0.000002  -0.000004
    7  LA 1 ZZ   -0.000002   0.000024   0.000000   0.000006   0.000007
    8  LA 1 XY    0.000000  -0.000000  -0.000001   0.000002  -0.000002
    9  LA 1 XZ   -0.000000   0.000002  -0.000000   0.000001   0.000000
   10  LA 1 YZ    0.000001  -0.000010   0.000001  -0.000002  -0.000003
   11  LA 1 XX    0.000003   0.000030   0.000005   0.000019   0.000020
   12  LA 1 YY    0.000002   0.000025  -0.000006   0.000012   0.000021
   13  LA 1 ZZ   -0.000005  -0.000055   0.000000  -0.000031  -0.000040
   14  LA 1 XY    0.000000   0.000001   0.000003  -0.000004   0.000004
   15  LA 1 XZ   -0.000000  -0.000004   0.000002  -0.000005  -0.000000
   16  LA 1 YZ    0.000002   0.000022   0.000001   0.000013   0.000015
   17  LA 1  S   -0.000008  -0.000013  -0.000001  -0.000088  -0.000111
   18  LA 1  X   -0.000000  -0.000001   0.000008  -0.000013   0.000007
   19  LA 1  Y    0.000000   0.000004   0.000014   0.000015   0.000007
   20  LA 1  Z   -0.000001  -0.000020   0.000002  -0.000040  -0.000054
   21  LA 1  S    0.000004   0.000022   0.000001   0.000129   0.000164
   22  LA 1  X    0.000000   0.000001  -0.000020   0.000032  -0.000016
   23  LA 1  Y   -0.000000  -0.000005  -0.000035  -0.000042  -0.000021
   24  LA 1  Z    0.000001   0.000023  -0.000006   0.000114   0.000154
   25  LA 1  S   -0.000004   0.000012  -0.000000  -0.000002  -0.000002
   26  LA 1  X   -0.000000   0.000000  -0.000004   0.000006  -0.000005
   27  LA 1  Y    0.000003  -0.000001  -0.000007  -0.000002   0.000005
   28  LA 1  Z   -0.000012   0.000006  -0.000002  -0.000007  -0.000008
   29  LA 1 XX   -0.000002  -0.000011  -0.000008  -0.000036  -0.000042
   30  LA 1 YY   -0.000002  -0.000010   0.000017  -0.000022  -0.000043
   31  LA 1 ZZ    0.000003   0.000021  -0.000009   0.000058   0.000086
   32  LA 1 XY   -0.000000  -0.000000  -0.000002  -0.000000  -0.000002
   33  LA 1 XZ    0.000000   0.000001  -0.000017   0.000027  -0.000013
   34  LA 1 YZ   -0.000001  -0.000008  -0.000025  -0.000036  -0.000024
   35  P  2  S    1.000136   0.000073   0.000001   0.000083   0.000105
   36  P  2  S    0.000165   0.000450   0.000005   0.000591   0.000752
   37  P  2  S    0.000180   0.000593   0.000008   0.000922   0.001172
   38  P  2  S   -0.000937  -0.000179  -0.000003  -0.000291  -0.000370
   39  P  2  S   -0.000379  -0.002401  -0.000000   0.000052   0.000066
   40  P  2  X   -0.000002  -0.000003  -0.000274   0.000380  -0.000287
   41  P  2  Y    0.000014   0.000020  -0.000467  -0.000237   0.000126
   42  P  2  Z   -0.000061  -0.000090  -0.000094   0.000079   0.000223
   43  P  2  X   -0.000002  -0.000010  -0.000726   0.001006  -0.000761
   44  P  2  Y    0.000011   0.000059  -0.001238  -0.000624   0.000338
   45  P  2  Z   -0.000050  -0.000262  -0.000248   0.000193   0.000572
   46  P  2  X    0.000001   0.000004   0.000027  -0.000038   0.000028
   47  P  2  Y   -0.000007  -0.000025   0.000046   0.000026  -0.000009
   48  P  2  Z    0.000031   0.000113   0.000009  -0.000019  -0.000036
   49  P  2  X   -0.000003   0.000054   0.000067  -0.000079   0.000081
   50  P  2  Y    0.000018  -0.000337   0.000110  -0.000011  -0.000114
   51  P  2  Z   -0.000081   0.001493   0.000023   0.000282   0.000328
   52  P  2 XX   -0.000003  -0.000066  -0.000203  -0.000047   0.000109
   53  P  2 YY   -0.000003  -0.000056   0.000230   0.000133  -0.000046
   54  P  2 ZZ    0.000006   0.000122  -0.000027  -0.000085  -0.000063
   55  P  2 XY   -0.000000  -0.000002  -0.000117   0.000156  -0.000120
   56  P  2 XZ    0.000000   0.000008  -0.000084   0.000124  -0.000105
   57  P  2 YZ   -0.000002  -0.000049  -0.000048  -0.000003   0.000054
   58  P  2 XX   -0.000021  -0.000008  -0.000255   0.000077   0.000276
   59  P  2 YY   -0.000018  -0.000007   0.000383   0.000311   0.000041
   60  P  2 ZZ    0.000040   0.000015  -0.000128  -0.000389  -0.000317
   61  P  2 XY   -0.000001  -0.000000  -0.000116   0.000140  -0.000101
   62  P  2 XZ    0.000003   0.000001  -0.000260   0.000349  -0.000313
   63  P  2 YZ   -0.000016  -0.000006  -0.000313  -0.000023   0.000269
   64  P  2 XXX   0.000001   0.000010  -0.000020   0.000029  -0.000015
   65  P  2 YYY  -0.000006   0.000028  -0.000029  -0.000066  -0.000057
   66  P  2 ZZZ  -0.000012  -0.000181   0.000025  -0.000039  -0.000082
   67  P  2 XXY   0.000000  -0.000162  -0.000013   0.000034   0.000052
   68  P  2 XXZ   0.000009   0.000109  -0.000008   0.000042   0.000073
   69  P  2 YYX   0.000000   0.000003  -0.000005   0.000007  -0.000003
   70  P  2 YYZ   0.000006   0.000134  -0.000026   0.000010   0.000037
   71  P  2 ZZX  -0.000001  -0.000017   0.000031  -0.000046   0.000023
   72  P  2 ZZY   0.000008   0.000123   0.000052   0.000054   0.000024
   73  P  2 XYZ   0.000000   0.000012  -0.000013   0.000023  -0.000018
   74  P  2 XX    0.000001   0.000022   0.000004   0.000003   0.000000
   75  P  2 YY    0.000001   0.000019  -0.000004  -0.000001   0.000003
   76  P  2 ZZ   -0.000002  -0.000041  -0.000000  -0.000002  -0.000003
   77  P  2 XY    0.000000   0.000001   0.000002  -0.000003   0.000003
   78  P  2 XZ   -0.000000  -0.000003   0.000001  -0.000001   0.000001
   79  P  2 YZ    0.000001   0.000016  -0.000001   0.000001   0.000001
   80  O  3  S   -0.000000   0.975792   0.000000   0.000028   0.000036
   81  O  3  S   -0.000001  -0.001112   0.000001   0.000041   0.000053
   82  O  3  S    0.000005   0.043091  -0.000000  -0.000012  -0.000015
   83  O  3  S   -0.000058   0.004809   0.000000   0.000135   0.000170
   84  O  3  X    0.000000   0.000022   0.000004  -0.000006   0.000004
   85  O  3  Y   -0.000000  -0.000131   0.000007   0.000006   0.000001
   86  O  3  Z    0.000001   0.000582   0.000001  -0.000011  -0.000015
   87  O  3  X   -0.000001  -0.000020  -0.000010   0.000015  -0.000009
   88  O  3  Y    0.000004   0.000121  -0.000017  -0.000015  -0.000004
   89  O  3  Z   -0.000017  -0.000539  -0.000003   0.000033   0.000046
   90  O  3  X   -0.000002   0.000032   0.000040  -0.000056   0.000042
[...]
            144  C  4 XXZ     0.00083     0.07714
            145  C  4 YYX     0.00084     0.06910
            146  C  4 YYZ     0.00134     0.06648
            147  C  4 ZZX     0.00000     0.07004
            148  C  4 ZZY     0.00000     0.06682
            149  C  4 XYZ     0.00000     0.00299
            150  C  5  S      1.95556     1.55547
            151  C  5  S      0.82709     0.43101
            152  C  5  S      0.16166     0.27780
            153  C  5  S      0.32150     0.14886
            154  C  5  X      0.27301     0.21169
            155  C  5  Y      0.29403     0.22596
            156  C  5  Z      0.29326     0.22550
            157  C  5  X      0.51649     0.26613
            158  C  5  Y      0.53809     0.27915
            159  C  5  Z      0.53809     0.28002
            160  C  5  X      0.14295     0.18515
            161  C  5  Y      0.19488     0.20436
            162  C  5  Z      0.22784     0.21012
            163  C  5 XX      0.00524     0.08565
            164  C  5 YY      0.00528     0.08687
            165  C  5 ZZ      0.00418     0.08572
            166  C  5 XY      0.00425     0.00460
            167  C  5 XZ      0.00336     0.00460
            168  C  5 YZ      0.00000     0.00377
            169  C  5 XX      0.00865     0.09202
            170  C  5 YY      0.01278     0.09094
            171  C  5 ZZ      0.01135     0.08605
            172  C  5 XY      0.01035     0.02602
            173  C  5 XZ      0.00817     0.02544
            174  C  5 YZ      0.00000     0.01546
            175  C  5 XXX     0.00091     0.15950
            176  C  5 YYY     0.00074     0.17156
            177  C  5 ZZZ     0.00081     0.16829
            178  C  5 XXY     0.00127     0.07592
            179  C  5 XXZ     0.00087     0.07827
            180  C  5 YYX     0.00080     0.06894
            181  C  5 YYZ     0.00135     0.06679
            182  C  5 ZZX     0.00000     0.07037
            183  C  5 ZZY     0.00000     0.06669
            184  C  5 XYZ     0.00000     0.00293
            185  C  6  S      1.95556     1.55583
            186  C  6  S      0.82709     0.43305
            187  C  6  S      0.16166     0.27885
            188  C  6  S      0.32152     0.14975
            189  C  6  X      0.30028     0.22807
            190  C  6  Y      0.26152     0.20822
            191  C  6  Z      0.29851     0.22872
            192  C  6  X      0.54349     0.27929
            193  C  6  Y      0.50419     0.26713
            194  C  6  Z      0.54499     0.28000
            195  C  6  X      0.20605     0.20786
            196  C  6  Y      0.11601     0.17307
            197  C  6  Z      0.24368     0.21318
            198  C  6 XX      0.00569     0.08700
            199  C  6 YY      0.00595     0.09047
            200  C  6 ZZ      0.00361     0.08678
            201  C  6 XY      0.00432     0.00326
            202  C  6 XZ      0.00275     0.00456
            203  C  6 YZ      0.00000     0.00263
            204  C  6 XX      0.01070     0.08893
            205  C  6 YY      0.01472     0.10332
            206  C  6 ZZ      0.01025     0.08757
            207  C  6 XY      0.00874     0.02294
            208  C  6 XZ      0.00690     0.01985
            209  C  6 YZ      0.00000     0.01371
            210  C  6 XXX     0.00089     0.16259
            211  C  6 YYY     0.00094     0.16926
            212  C  6 ZZZ     0.00060     0.16679
            213  C  6 XXY     0.00142     0.07126
            214  C  6 XXZ     0.00094     0.07560
            215  C  6 YYX     0.00050     0.07865
            216  C  6 YYZ     0.00145     0.07276
            217  C  6 ZZX     0.00000     0.07394
            218  C  6 ZZY     0.00000     0.06424
            219  C  6 XYZ     0.00000     0.00270
            220  H  7  S      0.25404     0.19597
            221  H  7  S      0.45433     0.24615
            222  H  7  S      0.06639     0.12189
            223  H  7  X      0.00161     0.00209
            224  H  7  Y      0.00743     0.01095
            225  H  7  Z      0.00171     0.00220
            226  H  7  X      0.01058     0.02893
            227  H  7  Y      0.00478     0.04756
            228  H  7  Z      0.00890     0.02990
            229  H  7 XX      0.00032     0.06960
            230  H  7 YY      0.00065     0.11719
            231  H  7 ZZ      0.00101     0.07011
            232  H  7 XY      0.00009     0.00489
            233  H  7 XZ      0.00084     0.00015
            234  H  7 YZ      0.00000     0.00512
            235  H  8  S      0.24941     0.19178
            236  H  8  S      0.45041     0.24160
            237  H  8  S      0.05244     0.11669
            238  H  8  X      0.00162     0.00211
            239  H  8  Y      0.00187     0.00261
            240  H  8  Z      0.00728     0.01050
            241  H  8  X      0.00958     0.02913
            242  H  8  Y      0.00786     0.02916
            243  H  8  Z      0.00596     0.04755
            244  H  8 XX      0.00090     0.06844
            245  H  8 YY      0.00012     0.07100
            246  H  8 ZZ      0.00010     0.11279
            247  H  8 XY      0.00093     0.00021
            248  H  8 XZ      0.00079     0.00493
            249  H  8 YZ      0.00000     0.00542
            250  H  9  S      0.25405     0.18829
            251  H  9  S      0.45436     0.24411
            252  H  9  S      0.06638     0.12223
            253  H  9  X      0.00585     0.00772
            254  H  9  Y      0.00248     0.00354
            255  H  9  Z      0.00242     0.00340
            256  H  9  X      0.00973     0.04417
            257  H  9  Y      0.00717     0.03139
            258  H  9  Z      0.00738     0.03219
            259  H  9 XX      0.00048     0.10012
            260  H  9 YY      0.00090     0.07559
            261  H  9 ZZ      0.00063     0.07484
            262  H  9 XY      0.00064     0.00523
            263  H  9 XZ      0.00025     0.00527
            264  H  9 YZ      0.00000     0.00165
            265  H 10  S      0.25404     0.18760
            266  H 10  S      0.45436     0.24388
            267  H 10  S      0.06637     0.12221
            268  H 10  X      0.00561     0.00739
            269  H 10  Y      0.00246     0.00346
            270  H 10  Z      0.00268     0.00377
            271  H 10  X      0.01016     0.04365
            272  H 10  Y      0.00721     0.03128
            273  H 10  Z      0.00691     0.03291
            274  H 10 XX      0.00053     0.09818
            275  H 10 YY      0.00087     0.07496
            276  H 10 ZZ      0.00061     0.07695
            277  H 10 XY      0.00062     0.00494
            278  H 10 XZ      0.00028     0.00535
            279  H 10 YZ      0.00000     0.00192
            280  H 11  S      0.24942     0.19185
            281  H 11  S      0.45041     0.24156
            282  H 11  S      0.05243     0.11666
            283  H 11  X      0.00164     0.00218
            284  H 11  Y      0.00187     0.00260
            285  H 11  Z      0.00726     0.01046
            286  H 11  X      0.00993     0.02923
            287  H 11  Y      0.00787     0.02916
            288  H 11  Z      0.00561     0.04747
            289  H 11 XX      0.00088     0.06858
            290  H 11 YY      0.00013     0.07103
            291  H 11 ZZ      0.00010     0.11270
            292  H 11 XY      0.00095     0.00022
            293  H 11 XZ      0.00079     0.00494
            294  H 11 YZ      0.00000     0.00540
            295  H 12  S      0.25404     0.19597
            296  H 12  S      0.45434     0.24616
            297  H 12  S      0.06640     0.12188
            298  H 12  X      0.00160     0.00208
            299  H 12  Y      0.00743     0.01095
            300  H 12  Z      0.00172     0.00220
            301  H 12  X      0.01069     0.02902
            302  H 12  Y      0.00483     0.04762
            303  H 12  Z      0.00876     0.02979
            304  H 12 XX      0.00032     0.06961
            305  H 12 YY      0.00064     0.11720
            306  H 12 ZZ      0.00101     0.07009
            307  H 12 XY      0.00009     0.00487
            308  H 12 XZ      0.00083     0.00014
            309  H 12 YZ      0.00000     0.00514
            310  H 13  S      0.25405     0.18777
            311  H 13  S      0.45434     0.24339
            312  H 13  S      0.06641     0.12184
            313  H 13  X      0.00538     0.00686
            314  H 13  Y      0.00263     0.00398
            315  H 13  Z      0.00274     0.00389
            316  H 13  X      0.00448     0.04109
            317  H 13  Y      0.01279     0.03379
            318  H 13  Z      0.00700     0.03269
            319  H 13 XX      0.00052     0.09621
            320  H 13 YY      0.00073     0.07658
            321  H 13 ZZ      0.00073     0.07733
            322  H 13 XY      0.00060     0.00490
            323  H 13 XZ      0.00033     0.00521
            324  H 13 YZ      0.00000     0.00214
            325  H 14  S      0.25405     0.18854
            326  H 14  S      0.45434     0.24367
            327  H 14  S      0.06638     0.12185
            328  H 14  X      0.00562     0.00720
            329  H 14  Y      0.00266     0.00408
            330  H 14  Z      0.00248     0.00352
            331  H 14  X      0.00414     0.04183
            332  H 14  Y      0.01279     0.03394
            333  H 14  Z      0.00733     0.03179
            334  H 14 XX      0.00047     0.09825
            335  H 14 YY      0.00076     0.07728
            336  H 14 ZZ      0.00076     0.07515
            337  H 14 XY      0.00062     0.00520
            338  H 14 XZ      0.00030     0.00515
            339  H 14 YZ      0.00000     0.00185
            340  H 15  S      0.24942     0.19218
            341  H 15  S      0.45042     0.24170
            342  H 15  S      0.05244     0.11670
            343  H 15  X      0.00164     0.00211
            344  H 15  Y      0.00198     0.00302
            345  H 15  Z      0.00715     0.01022
            346  H 15  X      0.00802     0.02820
            347  H 15  Y      0.01124     0.03109
            348  H 15  Z      0.00413     0.04720
            349  H 15 XX      0.00085     0.06792
            350  H 15 YY      0.00019     0.07265
            351  H 15 ZZ      0.00011     0.11222
            352  H 15 XY      0.00077     0.00027
            353  H 15 XZ      0.00094     0.00505
            354  H 15 YZ      0.00000     0.00532

          ----- MULLIKEN ATOMIC OVERLAP POPULATIONS -----
          (OFF-DIAGONAL ELEMENTS NEED TO BE MULTIPLIED BY 2)

             1           2           3           4           5

    1    8.5685512
    2   -0.0027749  13.1797315
    3    0.1075886   0.3288721   8.2447718
    4   -0.0000887   0.3345726  -0.0262333   5.0383149
    5   -0.0000883   0.3345689  -0.0262316  -0.0341075   5.0383173
    6   -0.0000887   0.3345923  -0.0262469  -0.0341072  -0.0341105
    7    0.0003144  -0.0165393   0.0003582   0.3662203  -0.0026115
    8    0.0004660  -0.0114551   0.0014477   0.3535817   0.0002448
    9    0.0003111  -0.0165442   0.0003572   0.3662339   0.0025939
   10    0.0003108  -0.0165456   0.0003566   0.0025938   0.3662319
   11    0.0004658  -0.0114511   0.0014476   0.0002472   0.3535820
   12    0.0003147  -0.0165404   0.0003592  -0.0026143   0.3662181
   13    0.0003135  -0.0165333   0.0003584   0.0025957  -0.0026269
   14    0.0003119  -0.0165340   0.0003559  -0.0026249   0.0025948
   15    0.0004666  -0.0114755   0.0014490   0.0002459   0.0002495

             6           7           8           9          10

    6    5.0383946
    7    0.0025957   0.4935383
    8    0.0002458  -0.0128712   0.4710790
    9   -0.0026282  -0.0188651  -0.0128779   0.4935794
   10   -0.0026230  -0.0000067  -0.0000149  -0.0000809   0.4935706
   11    0.0002422  -0.0001254  -0.0001430  -0.0000148  -0.0128782
   12    0.0025959   0.0007832  -0.0001248  -0.0000069  -0.0188657
   13    0.3662266  -0.0000809  -0.0000150  -0.0000061   0.0007903
   14    0.3662390  -0.0000063  -0.0001256   0.0007919  -0.0000059
   15    0.3535816  -0.0000151  -0.0001471  -0.0001260  -0.0001273

            11          12          13          14          15

   11    0.4710703
   12   -0.0128694   0.4935524
   13   -0.0001242  -0.0000068   0.4935733
   14   -0.0000153  -0.0000809  -0.0188701   0.4935395
   15   -0.0001462  -0.0000147  -0.0128731  -0.0128774   0.4711128

          TOTAL MULLIKEN AND LOWDIN ATOMIC POPULATIONS
       ATOM         MULL.POP.    CHARGE          LOW.POP.     CHARGE
    1 LA            8.676374    2.323626         8.802658    2.197342
    2 P            14.375944    0.624056        14.312145    0.687855
    3 O             8.609011   -0.609011         8.294950   -0.294950
    4 C             6.364830   -0.364830         6.036398   -0.036398
    5 C             6.364825   -0.364825         6.037607   -0.037607
    6 C             6.364909   -0.364909         6.051819   -0.051819
    7 H             0.812689    0.187311         0.952703    0.047297
    8 H             0.789290    0.210710         0.933934    0.066066
    9 H             0.812717    0.187283         0.939744    0.060256
   10 H             0.812706    0.187294         0.938463    0.061537
   11 H             0.789288    0.210712         0.934054    0.065946
   12 H             0.812700    0.187300         0.952722    0.047278
   13 H             0.812722    0.187278         0.937655    0.062345
   14 H             0.812693    0.187307         0.939304    0.060696
   15 H             0.789303    0.210697         0.935845    0.064155

          MULLIKEN SPHERICAL HARMONIC POPULATIONS
       ATOM           S       P       D      F      G      H      I    TOTAL
    1 LA            2.03    6.44    0.21   0.00   0.00   0.00   0.00    8.68
    2 P             5.32    8.40    0.58   0.07   0.00   0.00   0.00   14.38
    3 O             3.48    5.09    0.04   0.00   0.00   0.00   0.00    8.61
    4 C             3.27    3.02    0.07   0.01   0.00   0.00   0.00    6.36
    5 C             3.27    3.02    0.07   0.01   0.00   0.00   0.00    6.36
    6 C             3.27    3.02    0.07   0.01   0.00   0.00   0.00    6.36
    7 H             0.77    0.04    0.00   0.00   0.00   0.00   0.00    0.81
    8 H             0.75    0.03    0.00   0.00   0.00   0.00   0.00    0.79
    9 H             0.77    0.04    0.00   0.00   0.00   0.00   0.00    0.81
   10 H             0.77    0.04    0.00   0.00   0.00   0.00   0.00    0.81
   11 H             0.75    0.03    0.00   0.00   0.00   0.00   0.00    0.79
   12 H             0.77    0.04    0.00   0.00   0.00   0.00   0.00    0.81
   13 H             0.77    0.04    0.00   0.00   0.00   0.00   0.00    0.81
   14 H             0.77    0.04    0.00   0.00   0.00   0.00   0.00    0.81
   15 H             0.75    0.03    0.00   0.00   0.00   0.00   0.00    0.79

          -------------------------------
          BOND ORDER AND VALENCE ANALYSIS     BOND ORDER THRESHOLD=0.050
          -------------------------------

                   BOND                       BOND                       BOND
  ATOM PAIR DIST  ORDER      ATOM PAIR DIST  ORDER      ATOM PAIR DIST  ORDER
    1   2  4.459  0.052        1   3  2.750  0.500        2   3  1.709  0.939
    2   4  1.776  0.994        2   5  1.776  0.994        2   6  1.776  0.994
    4   7  1.089  0.883        4   8  1.094  0.863        4   9  1.089  0.883
    5  10  1.089  0.883        5  11  1.094  0.863        5  12  1.089  0.883
    6  13  1.089  0.883        6  14  1.089  0.883        6  15  1.094  0.863

                       TOTAL       BONDED        FREE
      ATOM            VALENCE     VALENCE     VALENCE
    1 LA               -0.419       0.575      -0.994
    2 P                 4.702       4.298       0.404
    3 O                 2.406       1.472       0.934
    4 C                 3.928       3.634       0.295
    5 C                 3.928       3.634       0.295
    6 C                 3.928       3.634       0.295
    7 H                 0.981       0.929       0.052
    8 H                 0.971       0.919       0.051
    9 H                 0.981       0.929       0.052
   10 H                 0.981       0.929       0.052
   11 H                 0.971       0.919       0.051
   12 H                 0.981       0.929       0.052
   13 H                 0.981       0.929       0.052
   14 H                 0.981       0.929       0.052
   15 H                 0.971       0.919       0.051

          ---------------------
          ELECTROSTATIC MOMENTS
          ---------------------

 POINT   1           X           Y           Z (BOHR)    CHARGE
                -0.212146    1.407945   -4.372449        3.00 (A.U.)
         DX          DY          DZ         /D/  (DEBYE)
    -0.138510    0.873569   -3.893343    3.992546
 ...... END OF PROPERTY EVALUATION ......
 CPU     0: STEP CPU TIME=     0.20 TOTAL CPU TIME=     2169.8 (   36.2 MIN)
 TOTAL WALL CLOCK TIME=     2199.3 SECONDS, CPU UTILIZATION IS  98.66%
  $VIB   
          IVIB=   0 IATOM=   0 ICOORD=   0 E=     -565.5760204291
  4.596433505E-08-5.635009204E-07-1.279591680E-07 4.693397284E-06 7.104856885E-05
 -8.259959485E-06-1.620435417E-06-1.107027474E-05-1.968247599E-05-1.408367224E-05
 -1.685636533E-05-4.503246593E-05 6.787030989E-06-1.607025218E-05-3.975981666E-05
 -3.758164886E-06-9.549559242E-07-5.627794816E-05 8.936684191E-06 1.001121625E-05
  3.660690279E-05-7.689693306E-06 2.077711288E-05 5.887508951E-06 1.291631099E-05
 -3.395982247E-05 1.538133342E-05-1.082187245E-05-3.452059636E-05 1.642242875E-05
  8.567964942E-06 2.038570401E-05 5.417939427E-06-7.383699418E-06 9.388438593E-06
  3.454983259E-05 1.469073981E-05-4.270538548E-06 2.760300731E-05-1.416535806E-05
 -1.771116916E-06 3.161392337E-05 2.884803222E-06-1.157361719E-05-4.342251217E-06
 -1.385102847E-01 8.735691655E-01-3.893342651E+00
 ......END OF GEOMETRY SEARCH......
 CPU     0: STEP CPU TIME=     0.01 TOTAL CPU TIME=     2169.8 (   36.2 MIN)
 TOTAL WALL CLOCK TIME=     2199.3 SECONDS, CPU UTILIZATION IS  98.66%
               2991967  WORDS OF DYNAMIC MEMORY USED
 EXECUTION OF GAMESS TERMINATED NORMALLY Thu Jun  9 00:46:29 2016
 DDI: 44487344 bytes (42.4 MB / 5 MWords) used by master data server.

 ----------------------------------------
 CPU timing information for all processes
 ========================================
 0: 2166.465 + 3.450 = 2169.916
 1: 2166.525 + 3.99 = 2169.625
 2: 2167.266 + 3.244 = 2170.511
 3: 2166.685 + 3.227 = 2169.913
 4: 2167.398 + 3.360 = 2170.758
 5: 2167.420 + 3.335 = 2170.755
 6: 2168.654 + 3.338 = 2171.992
 7: 2167.97 + 3.376 = 2170.474
 8: 2168.801 + 3.470 = 2172.271
 9: 2169.715 + 3.156 = 2172.871
 10: 2168.974 + 3.356 = 2172.330
 11: 2169.670 + 3.245 = 2172.915
 12: 2168.366 + 3.425 = 2171.791
 13: 2169.544 + 3.237 = 2172.781
 14: 2167.958 + 3.323 = 2171.281
 15: 2168.73 + 2.651 = 2170.724
 16: 0.13 + 0.70 = 0.84
 17: 0.10 + 0.77 = 0.88
 18: 0.13 + 0.69 = 0.83
 19: 0.08 + 0.73 = 0.82
 20: 0.12 + 0.80 = 0.93
 21: 0.14 + 0.71 = 0.86
 22: 0.12 + 0.73 = 0.86
 23: 0.12 + 0.70 = 0.83
 24: 0.15 + 0.74 = 0.90
 25: 0.13 + 0.67 = 0.81
 26: 0.17 + 0.74 = 0.92
 27: 0.19 + 0.64 = 0.84
 28: 0.16 + 0.65 = 0.82
 29: 0.14 + 0.79 = 0.94
 30: 0.15 + 0.69 = 0.85
 31: 0.10 + 0.78 = 0.89
 ----------------------------------------
unset echo
----- accounting info -----
Files used on the master node node216 were:
-rw-r--r-- 1 fzahari quantum     1997 Jun  9 00:09 /local/scratch/fzahari/196571.share/bnd_var-275.F05
-rw-r--r-- 1 fzahari quantum 17178000 Jun  9 00:46 /local/scratch/fzahari/196571.share/bnd_var-275.F10
-rw-r--r-- 1 fzahari quantum        8 Jun  9 00:09 /local/scratch/fzahari/196571.share/bnd_var-275.nodes.mpd
ls: No match.
ls: No match.
ls: No match.
Thu Jun  9 00:46:32 CDT 2016
34689.447u 57.749s 36:43.75 1576.7%	0+0k 104+319840io 0pf+0w
