----- GAMESS execution script 'rungms' -----
This job is running on host node216
under operating system Linux at Wed Jun 8 23:53:55 CDT 2016
PBS has assigned the following compute nodes to this run:
node216
Available scratch disk space (Kbyte units) at beginning of the job is
Filesystem           1K-blocks      Used Available Use% Mounted on
/dev/sda7            2670838024   1078836 2534088404   1% /local
GAMESS temporary binary files will be written to /local/scratch/fzahari/196569.share
GAMESS supplementary output files will be written to /work1/quantum/fzahari/scr
Copying input file bnd_var-265.inp to your run's scratch directory...
cp bnd_var-265.inp /local/scratch/fzahari/196569.share/bnd_var-265.F05
unset echo
setenv I_MPI_WAIT_MODE enable
setenv I_MPI_PIN disable
setenv I_MPI_DEBUG 0
setenv I_MPI_STATS 0
setenv I_MPI_FABRICS dapl
setenv I_MPI_DAT_LIBRARY libdat2.so
unset echo
MPI kickoff will run GAMESS on 16 cores in 1 nodes.
The binary to be executed is /home/mschmidt/gamess/gamess.132.x
MPI will run 16 compute processes and 16 data servers,
    placing 16 of each process type onto each node.
The scratch disk space on each node is /local/scratch/fzahari/196569.share, with free space
Filesystem           1K-blocks      Used Available Use% Mounted on
/dev/sda7            2670838024   1078860 2534088380   1% /local
setenv I_MPI_HYDRA_ENV all
setenv I_MPI_PERHOST 32
unset echo
mpiexec.hydra -f /local/scratch/fzahari/196569.share/bnd_var-265.processes.mpd -n 32 /home/mschmidt/gamess/gamess.132.x
          ******************************************************
          *         GAMESS VERSION =  5 DEC 2014 (R1)          *
          *             FROM IOWA STATE UNIVERSITY             *
          * M.W.SCHMIDT, K.K.BALDRIDGE, J.A.BOATZ, S.T.ELBERT, *
          *   M.S.GORDON, J.H.JENSEN, S.KOSEKI, N.MATSUNAGA,   *
          *          K.A.NGUYEN, S.J.SU, T.L.WINDUS,           *
          *       TOGETHER WITH M.DUPUIS, J.A.MONTGOMERY       *
          *         J.COMPUT.CHEM.  14, 1347-1363(1993)        *
          **************** 64 BIT INTEL VERSION ****************

  SINCE 1993, STUDENTS AND POSTDOCS WORKING AT IOWA STATE UNIVERSITY
  AND ALSO IN THEIR VARIOUS JOBS AFTER LEAVING ISU HAVE MADE IMPORTANT
  CONTRIBUTIONS TO THE CODE:
     IVANA ADAMOVIC, CHRISTINE AIKENS, YURI ALEXEEV, POOJA ARORA,
     ANDREY ASADCHEV, ROB BELL, PRADIPTA BANDYOPADHYAY, JONATHAN BENTZ,
     BRETT BODE, KURT BRORSEN, CALEB CARLIN, GALINA CHABAN, WEI CHEN,
     CHEOL HO CHOI, PAUL DAY, ALBERT DEFUSCO, NUWAN DESILVA, TIM DUDLEY,
     DMITRI FEDOROV, GRAHAM FLETCHER, MARK FREITAG, KURT GLAESEMANN,
     DAN KEMP, GRANT MERRILL, NORIYUKI MINEZAWA, JONATHAN MULLIN,
     TAKESHI NAGATA, SEAN NEDD, HEATHER NETZLOFF, BOSILJKA NJEGIC, RYAN OLSON,
     MIKE PAK, SPENCER PRUITT, LUKE ROSKOP, JIM SHOEMAKER, LYUDMILA SLIPCHENKO,
     TONY SMITH, SAROM SOK, JIE SONG, TETSUYA TAKETSUGU, SIMON WEBB,
     PENG XU, SOOHAENG YOO, FEDERICO ZAHARIEV

  ADDITIONAL CODE HAS BEEN PROVIDED BY COLLABORATORS IN OTHER GROUPS:
     IOWA STATE UNIVERSITY:
          JOE IVANIC, AARON WEST, LAIMUTIS BYTAUTAS, KLAUS RUEDENBERG
     UNIVERSITY OF TOKYO: KIMIHIKO HIRAO, TAKAHITO NAKAJIMA,
          TAKAO TSUNEDA, MUNEAKI KAMIYA, SUSUMU YANAGISAWA,
          KIYOSHI YAGI, MAHITO CHIBA, SEIKEN TOKURA, NAOAKI KAWAKAMI
     UNIVERSITY OF AARHUS: FRANK JENSEN
     UNIVERSITY OF IOWA: VISVALDAS KAIRYS, HUI LI
     NATIONAL INST. OF STANDARDS AND TECHNOLOGY: WALT STEVENS, DAVID GARMER
     UNIVERSITY OF PISA: BENEDETTA MENNUCCI, JACOPO TOMASI
     UNIVERSITY OF MEMPHIS: HENRY KURTZ, PRAKASHAN KORAMBATH
     UNIVERSITY OF ALBERTA: TOBY ZENG, MARIUSZ KLOBUKOWSKI
     UNIVERSITY OF NEW ENGLAND: MARK SPACKMAN
     MIE UNIVERSITY: HIROAKI UMEDA
     NAT. INST. OF ADVANCED INDUSTRIAL SCIENCE AND TECHNOLOGY: KAZUO KITAURA
     MICHIGAN STATE UNIVERSITY:
          KAROL KOWALSKI, MARTA WLOCH, JEFFREY GOUR, JESSE LUTZ,
          WEI LI, PIOTR PIECUCH
     UNIVERSITY OF SILESIA: MONIKA MUSIAL, STANISLAW KUCHARSKI
     FACULTES UNIVERSITAIRES NOTRE-DAME DE LA PAIX:
          OLIVIER QUINET, BENOIT CHAMPAGNE
     UNIVERSITY OF CALIFORNIA - SANTA BARBARA: BERNARD KIRTMAN
     INSTITUTE FOR MOLECULAR SCIENCE:
          KAZUYA ISHIMURA, MICHIO KATOUDA, AND SHIGERU NAGASE
     UNIVERSITY OF NOTRE DAME: ANNA POMOGAEVA, DAN CHIPMAN
     KYUSHU UNIVERSITY:
          HARUYUKI NAKANO,
          FENG LONG GU, JACEK KORCHOWIEC, MARCIN MAKOWSKI, AND YURIKO AOKI,
          HIROTOSHI MORI AND EISAKU MIYOSHI
     PENNSYLVANIA STATE UNIVERSITY:
          TZVETELIN IORDANOV, CHET SWALINA, JONATHAN SKONE,
          SHARON HAMMES-SCHIFFER
     WASEDA UNIVERSITY:
          MASATO KOBAYASHI, TOMOKO AKAMA, TSUGUKI TOUMA,
          TAKESHI YOSHIKAWA, YASUHIRO IKABATA, HIROMI NAKAI
     NANJING UNIVERSITY: SHUHUA LI
     UNIVERSITY OF NEBRASKA:
          PEIFENG SU, DEJUN SI, NANDUN THELLAMUREGE, YALI WANG, HUI LI
     UNIVERSITY OF ZURICH: ROBERTO PEVERATI, KIM BALDRIDGE
     N. COPERNICUS UNIVERSITY AND JACKSON STATE UNIVERSITY:
          MARIA BARYSZ
     UNIVERSITY OF COPENHAGEN: CASPER STEINMANN
     TOKYO INSTITUTE OF TECHNOLOGY: HIROYA NAKATA
     NAGOYA UNIVERSITY: YOSHIO NISHIMOTO, STEPHAN IRLE


 PARALLEL VERSION RUNNING ON       16 PROCESSORS IN        1 NODES.

 EXECUTION OF GAMESS BEGUN Wed Jun  8 23:53:56 2016

            ECHO OF THE FIRST FEW INPUT CARDS -
 INPUT CARD> $ZMAT DLC=.T. AUTO=.T. $END                                                    
 INPUT CARD> $ZMAT IFZMAT(1)=1, 1 , 3  FVALUE(1)= 2.65 $END                                 
 INPUT CARD> $CONTRL COORD=UNIQUE NZVAR= 39 $END                                            
 INPUT CARD> $CONTRL ICHARG=+3 MULT=1                                                       
 INPUT CARD>         MPLEVL=2                                                               
 INPUT CARD>         SCFTYP=RHF                                                             
 INPUT CARD>         MAXIT=200 ISPHER=1 ICUT=11                                             
 INPUT CARD>         RUNTYP=OPTIMIZE                                                        
 INPUT CARD>         PP=READ                                                                
 INPUT CARD>         $END                                                                   
 INPUT CARD> $SCF    DIRSCF=.T. FDIFF=.F. $END                                              
 INPUT CARD> $TRANS  DIRTRF=.T. $END                                                        
 INPUT CARD> $SYSTEM MWORDS=300 MEMDDI=300 $END                                             
 INPUT CARD> $GUESS  GUESS=HUCKEL $END                                                      
 INPUT CARD> $BASIS  BASNAM(1)=METAL,                                                       
 INPUT CARD>                   LIGP,                                                        
 INPUT CARD>                   LIGO,                                                        
 INPUT CARD>                   LIGC,                                                        
 INPUT CARD>                   LIGC,                                                        
 INPUT CARD>                   LIGC,                                                        
 INPUT CARD>                   LIGH,                                                        
 INPUT CARD>                   LIGH,                                                        
 INPUT CARD>                   LIGH,                                                        
 INPUT CARD>                   LIGH,                                                        
 INPUT CARD>                   LIGH,                                                        
 INPUT CARD>                   LIGH,                                                        
 INPUT CARD>                   LIGH,                                                        
 INPUT CARD>                   LIGH,                                                        
 INPUT CARD>                   LIGH                                                         
 INPUT CARD> $END                                                                           
 INPUT CARD> $DATA                                                                          
 INPUT CARD>                                                                                
 INPUT CARD> C1                                                                             
 INPUT CARD> La 57.0 -0.1739353441 1.134168269 -4.0490164368                                
 INPUT CARD> P 15.0 -0.0211560557467 0.170465481227 0.2482684988                            
 INPUT CARD> O 8.0 -0.0829685787467 0.554706401127 -1.4647469092                            
 INPUT CARD> C 6.0 -1.47064795185 0.882921245027 0.9839453742                               
 INPUT CARD> C 6.0 1.47137090005 0.893210114527 0.8806796864                                
 INPUT CARD> C 6.0 -0.0102260763467 -1.59981456667 0.375031252                              
 INPUT CARD> H 1.0 -1.47239661865 1.96575431603 0.8705739762                                
 INPUT CARD> H 1.0 -1.43391535555 0.646718467427 2.0518378981                               
 INPUT CARD> H 1.0 -2.37504254065 0.445216111027 0.5647948592                               
 INPUT CARD> H 1.0 2.34743938865 0.461243012327 0.3998494046                                
 INPUT CARD> H 1.0 1.51055669935 0.656648243427 1.9484227103                                
 INPUT CARD> H 1.0 1.45813375885 1.97596378933 0.7678206837                                 
 INPUT CARD> H 1.0 0.871964423353 -2.01900591187 -0.1060360535                              
 INPUT CARD> H 1.0 -0.921607578047 -2.02586105467 -0.0411679526999                          
 INPUT CARD> H 1.0 0.0292841123533 -1.84116139117 1.4416014059                              
 INPUT CARD> $END                                                                           
 INPUT CARD>!                                                                               
  300000000 WORDS OF MEMORY AVAILABLE

     BASIS OPTIONS
     -------------
     GBASIS=             IGAUSS=       0      POLAR=NONE    
     NDFUNC=       0     NFFUNC=       0     DIFFSP=       F
     NPFUNC=       0      DIFFS=       F     BASNAM=METAL   

 USING BASNAM FOR ATOM CUSTOMIZED BASIS CONSTRUCTION
     ----------------
     ATOM  BASIS NAME
     ----------------
       1   METAL   
       2   LIGP    
       3   LIGO    
       4   LIGC    
       5   LIGC    
       6   LIGC    
       7   LIGH    
       8   LIGH    
       9   LIGH    
      10   LIGH    
      11   LIGH    
      12   LIGH    
      13   LIGH    
      14   LIGH    
      15   LIGH    
 NOW LOCATING ALL   15 BASIS SETS IN YOUR INPUT FILE...
 FOUND BASIS SET  $METAL 
  SBKJC                        
                               
  $END                         
 FOUND BASIS SET  $LIGP  
  CCT                          
                               
  $END                         
 FOUND BASIS SET  $LIGO  
  CCT                          
                               
  $END                         
 FOUND BASIS SET  $LIGC  
  CCT                          
                               
  $END                         
 FOUND BASIS SET  $LIGH  
  CCT                          
                               
  $END                         
    5 UNIQUE ATOM CUSTOMIZED BASIS SETS WERE FOUND.

     SEARCHING FOR $MCP
     $MCP GROUP NOT FOUND


     RUN TITLE
     ---------
                                                                                 

 THE POINT GROUP OF THE MOLECULE IS C1      
 THE ORDER OF THE PRINCIPAL AXIS IS     0

 ATOM      ATOMIC                      COORDINATES (BOHR)
           CHARGE         X                   Y                   Z
 LA         57.0    -0.3286901399        2.1432672524       -7.6515315853
 P          15.0    -0.0399791483        0.3221330499        0.4691594341
 O           8.0    -0.1567878794        1.0482431018       -2.7679702998
 C           6.0    -2.7791216534        1.6684792218        1.8593871441
 C           6.0     2.7804878274        1.6879223659        1.6642432902
 C           6.0    -0.0193244822       -3.0232111622        0.7087063031
 H           1.0    -2.7824261545        3.7147370165        1.6451462671
 H           1.0    -2.7097071116        1.2221206946        3.8774113986
 H           1.0    -4.4881796110        0.8413364552        1.0673075232
 H           1.0     4.4360172173        0.8716229070        0.7556058110
 H           1.0     2.8545382507        1.2408852504        3.6819850307
 H           1.0     2.7554732577        3.7340301235        1.4509706999
 H           1.0     1.6477738312       -3.8153679410       -0.2003790859
 H           1.0    -1.7415857907       -3.8283222825       -0.0777961501
 H           1.0     0.0553389481       -3.4792905285        2.7242316407

          INTERNUCLEAR DISTANCES (ANGS.)
          ------------------------------

                1 LA         2 P          3 O          4 C          5 C     

   1 LA      0.0000000    4.4066679    2.6500000 *  5.2033925    5.2025953  
   2 P       4.4066679    0.0000000    1.7566683 *  1.7747790 *  1.7748072 *
   3 O       2.6500000 *  1.7566683 *  0.0000000    2.8336325 *  2.8340046 *
   4 C       5.2033925    1.7747790 *  2.8336325 *  0.0000000    2.9438486 *
   5 C       5.2025953    1.7748072 *  2.8340046 *  2.9438486 *  0.0000000  
   6 C       5.2032356    1.7748464 *  2.8340846 *  2.9440764 *  2.9438040 *
   7 H       5.1555705    2.3909047 *  3.0619096    1.0887532 *  3.1330848  
   8 H       6.2486463    2.3399932 *  3.7682744    1.0943196 *  3.1421422  
   9 H       5.1581763    2.3909116 *  3.0634345    1.0886701 *  3.8852771  
  10 H       5.1577676    2.3911865 *  3.0646921    3.8854564    1.0887099 *
  11 H       6.2477848    2.3394534 *  3.7682147    3.1414960    1.0943364 *
  12 H       5.1550159    2.3912459 *  3.0625687    3.1335625    1.0887001 *
  13 H       5.1559197    2.3910209 *  3.0630030    3.8854953    3.1327142  
  14 H       5.1582602    2.3913253 *  3.0641835    3.1326214    3.8855020  
  15 H       6.2482613    2.3394936 *  3.7682415    3.1432263    3.1418203  

                6 C          7 H          8 H          9 H         10 H     

   1 LA      5.2032356    5.1555705    6.2486463    5.1581763    5.1577676  
   2 P       1.7748464 *  2.3909047 *  2.3399932 *  2.3909116 *  2.3911865 *
   3 O       2.8340846 *  3.0619096    3.7682744    3.0634345    3.0646921  
   4 C       2.9440764 *  1.0887532 *  1.0943196 *  1.0886701 *  3.8854564  
   5 C       2.9438040 *  3.1330848    3.1421422    3.8852771    1.0887099 *
   6 C       0.0000000    3.8854584    3.1441187    3.1321746    3.1316387  
   7 H       3.8854584    0.0000000    1.7710790 *  1.7945214 *  4.1323459  
   8 H       3.1441187    1.7710790 *  0.0000000    1.7713330 *  4.1306308  
   9 H       3.1321746    1.7945214 *  1.7713330 *  0.0000000    4.7253888  
  10 H       3.1316387    4.1323459    4.1306308    4.7253888    0.0000000  
  11 H       3.1432412    3.4312574    2.9463043 *  4.1300134    1.7710548 *
  12 H       3.8854285    2.9323490 *  3.4321337    4.1325112    1.7946159 *
  13 H       1.0887641 *  4.7252629    4.1327458    4.1310360    2.9299456 *
  14 H       1.0887395 *  4.1312995    3.4330473    2.9301683 *  4.1312045  
  15 H       1.0942492 *  4.1320364    2.9500657 *  3.4317777    3.4293086  

               11 H         12 H         13 H         14 H         15 H     

   1 LA      6.2477848    5.1550159    5.1559197    5.1582602    6.2482613  
   2 P       2.3394534 *  2.3912459 *  2.3910209 *  2.3913253 *  2.3394936 *
   3 O       3.7682147    3.0625687    3.0630030    3.0641835    3.7682415  
   4 C       3.1414960    3.1335625    3.8854953    3.1326214    3.1432263  
   5 C       1.0943364 *  1.0887001 *  3.1327142    3.8855020    3.1418203  
   6 C       3.1432412    3.8854285    1.0887641 *  1.0887395 *  1.0942492 *
   7 H       3.4312574    2.9323490 *  4.7252629    4.1312995    4.1320364  
   8 H       2.9463043 *  3.4321337    4.1327458    3.4330473    2.9500657 *
   9 H       4.1300134    4.1325112    4.1310360    2.9301683 *  3.4317777  
  10 H       1.7710548 *  1.7946159 *  2.9299456 *  4.1312045    3.4293086  
  11 H       0.0000000    1.7712038 *  3.4333258    4.1315554    2.9478957 *
  12 H       1.7712038 *  0.0000000    4.1312229    4.7256993    4.1311060  
  13 H       3.4333258    4.1312229    0.0000000    1.7947578 *  1.7711354 *
  14 H       4.1315554    4.7256993    1.7947578 *  0.0000000    1.7711335 *
  15 H       2.9478957 *  4.1311060    1.7711354 *  1.7711335 *  0.0000000  

  * ... LESS THAN  3.000


     ATOMIC BASIS SET
     ----------------
 THE CONTRACTED PRIMITIVE FUNCTIONS HAVE BEEN UNNORMALIZED
 THE CONTRACTED BASIS FUNCTIONS ARE NOW NORMALIZED TO UNITY

  SHELL TYPE  PRIMITIVE        EXPONENT          CONTRACTION COEFFICIENT(S)

 LA        

      1   L       1             9.1730000   -0.054833023521   -0.009797991527
      1   L       2             3.1200000    0.676604290237    0.231261800020
      1   L       3             2.1040000   -1.034429443730   -0.601214480110
      1   L       4             1.3200000   -0.518907222591    0.195188831214
      1   L       5             0.4960000    1.631603699894    1.076136069429

      2   D       6             1.2380000   -0.053797021791
      2   D       7             0.6061000    0.380144153981
      2   D       8             0.2518000    0.720349291785

      3   D       9             0.0978700    1.000000000000

      4   L      10             0.6182000   -0.107095028128   -0.051868986063
      4   L      11             0.0454600    1.033448271434    1.008107729120

      5   L      12             0.0177500    1.000000000000    1.000000000000

      6   L      13             0.2004000    1.000000000000    1.000000000000

      7   D      14             0.0353600    1.000000000000

 P         

      8   S      15        312400.0000000    0.000057689641
      8   S      16         46800.0000000    0.000448246591
      8   S      17         10650.0000000    0.002349131061
      8   S      18          3018.0000000    0.009781571802
      8   S      19           986.8000000    0.034142936511
      8   S      20           357.4000000    0.100192955985
      8   S      21           139.6000000    0.234346168617
      8   S      22            57.6300000    0.382391849918
      8   S      23            24.6000000    0.318052941833
      8   S      24            10.1200000    0.070770999093
      8   S      25             4.2830000   -0.001817789630
      8   S      26             1.8050000    0.002161561737
      8   S      27             0.2782000    0.000432249354

      9   S      28        312400.0000000   -0.000016380204
      9   S      29         46800.0000000   -0.000127233535
      9   S      30         10650.0000000   -0.000668625166
      9   S      31          3018.0000000   -0.002795303744
      9   S      32           986.8000000   -0.009928227435
      9   S      33           357.4000000   -0.030244566456
      9   S      34           139.6000000   -0.077884705328
      9   S      35            57.6300000   -0.156724571545
      9   S      36            24.6000000   -0.198042753651
      9   S      37            10.1200000    0.037971251521
      9   S      38             4.2830000    0.552751544147
      9   S      39             1.8050000    0.542611452452
      9   S      40             0.2782000   -0.009675942874

     10   S      41        312400.0000000    0.000006865735
     10   S      42         46800.0000000    0.000053281983
     10   S      43         10650.0000000    0.000280421002
     10   S      44          3018.0000000    0.001170789768
     10   S      45           986.8000000    0.004173591138
     10   S      46           357.4000000    0.012720496749
     10   S      47           139.6000000    0.033152766352
     10   S      48            57.6300000    0.067671246836
     10   S      49            24.6000000    0.089831018862
     10   S      50            10.1200000   -0.020305232360
     10   S      51             4.2830000   -0.313280408979
     10   S      52             1.8050000   -0.563687905527
     10   S      53             0.2782000    1.117494073734

     11   S      54             0.6158000    1.000000000000

     12   S      55             0.1055000    1.000000000000

     13   P      56           504.9000000    0.002433660431
     13   P      57           119.4000000    0.019305559477
     13   P      58            37.9600000    0.088473106893
     13   P      59            13.9500000    0.254701981099
     13   P      60             5.4570000    0.440199242653
     13   P      61             2.1770000    0.383632006272
     13   P      62             0.2877000   -0.003946337074

     14   P      63           504.9000000   -0.000954298933
     14   P      64           119.4000000   -0.007664025747
     14   P      65            37.9600000   -0.035465925259
     14   P      66            13.9500000   -0.106164716437
     14   P      67             5.4570000   -0.187210586037
     14   P      68             2.1770000   -0.181495819791
     14   P      69             0.2877000    0.991672644618

     15   P      70             0.8010000    1.000000000000

     16   P      71             0.0971400    1.000000000000

     17   D      72             0.6480000    1.000000000000

     18   D      73             0.2180000    1.000000000000

     19   F      74             0.4520000    1.000000000000

     20   D      75             3.1200000    1.000000000000

 O         

     21   S      76         15330.0000000    0.000520198307
     21   S      77          2299.0000000    0.004023344781
     21   S      78           522.4000000    0.020729083329
     21   S      79           147.3000000    0.081082327080
     21   S      80            47.5500000    0.236226352118
     21   S      81            16.7600000    0.443518209420
     21   S      82             6.2070000    0.358670588689
     21   S      83             0.6882000   -0.008349797237

     22   S      84         15330.0000000   -0.000197236012
     22   S      85          2299.0000000   -0.001535010700
     22   S      86           522.4000000   -0.007951183914
     22   S      87           147.3000000   -0.032113452892
     22   S      88            47.5500000   -0.100269643049
     22   S      89            16.7600000   -0.234047111838
     22   S      90             6.2070000   -0.301410927756
     22   S      91             0.6882000    1.034919649508

     23   S      92             1.7520000    1.000000000000

     24   S      93             0.2384000    1.000000000000

     25   P      94            34.4600000    0.041163489568
     25   P      95             7.7490000    0.257762835858
     25   P      96             2.2800000    0.802419274427

     26   P      97             0.7156000    1.000000000000

     27   P      98             0.2140000    1.000000000000

     28   D      99             2.3140000    1.000000000000

     29   D     100             0.6450000    1.000000000000

     30   F     101             1.4280000    1.000000000000

 C         

     31   S     102          8236.0000000    0.000542430189
     31   S     103          1235.0000000    0.004196427901
     31   S     104           280.8000000    0.021540914108
     31   S     105            79.2700000    0.083614949614
     31   S     106            25.5900000    0.239871618922
     31   S     107             8.9970000    0.443751820060
     31   S     108             3.3190000    0.353579696469
     31   S     109             0.3643000   -0.009176366076

     32   S     110          8236.0000000   -0.000196392234
     32   S     111          1235.0000000   -0.001525950274
     32   S     112           280.8000000   -0.007890449028
     32   S     113            79.2700000   -0.031514870532
     32   S     114            25.5900000   -0.096910008320
     32   S     115             8.9970000   -0.220541526288
     32   S     116             3.3190000   -0.296069112937
     32   S     117             0.3643000    1.040503432950

     33   S     118             0.9059000    1.000000000000

     34   S     119             0.1285000    1.000000000000

     35   P     120            18.7100000    0.039426387165
     35   P     121             4.1330000    0.244088984924
     35   P     122             1.2000000    0.815492008943

     36   P     123             0.3827000    1.000000000000

     37   P     124             0.1209000    1.000000000000

     38   D     125             1.0970000    1.000000000000

     39   D     126             0.3180000    1.000000000000

     40   F     127             0.7610000    1.000000000000

 C         

     41   S     128          8236.0000000    0.000542430189
     41   S     129          1235.0000000    0.004196427901
     41   S     130           280.8000000    0.021540914108
     41   S     131            79.2700000    0.083614949614
     41   S     132            25.5900000    0.239871618922
     41   S     133             8.9970000    0.443751820060
     41   S     134             3.3190000    0.353579696469
     41   S     135             0.3643000   -0.009176366076

     42   S     136          8236.0000000   -0.000196392234
     42   S     137          1235.0000000   -0.001525950274
     42   S     138           280.8000000   -0.007890449028
     42   S     139            79.2700000   -0.031514870532
     42   S     140            25.5900000   -0.096910008320
     42   S     141             8.9970000   -0.220541526288
     42   S     142             3.3190000   -0.296069112937
     42   S     143             0.3643000    1.040503432950

     43   S     144             0.9059000    1.000000000000

     44   S     145             0.1285000    1.000000000000

     45   P     146            18.7100000    0.039426387165
     45   P     147             4.1330000    0.244088984924
     45   P     148             1.2000000    0.815492008943

     46   P     149             0.3827000    1.000000000000

     47   P     150             0.1209000    1.000000000000

     48   D     151             1.0970000    1.000000000000

     49   D     152             0.3180000    1.000000000000

     50   F     153             0.7610000    1.000000000000

 C         

     51   S     154          8236.0000000    0.000542430189
     51   S     155          1235.0000000    0.004196427901
     51   S     156           280.8000000    0.021540914108
     51   S     157            79.2700000    0.083614949614
     51   S     158            25.5900000    0.239871618922
     51   S     159             8.9970000    0.443751820060
     51   S     160             3.3190000    0.353579696469
     51   S     161             0.3643000   -0.009176366076

     52   S     162          8236.0000000   -0.000196392234
     52   S     163          1235.0000000   -0.001525950274
     52   S     164           280.8000000   -0.007890449028
     52   S     165            79.2700000   -0.031514870532
     52   S     166            25.5900000   -0.096910008320
     52   S     167             8.9970000   -0.220541526288
     52   S     168             3.3190000   -0.296069112937
     52   S     169             0.3643000    1.040503432950

     53   S     170             0.9059000    1.000000000000

     54   S     171             0.1285000    1.000000000000

     55   P     172            18.7100000    0.039426387165
     55   P     173             4.1330000    0.244088984924
     55   P     174             1.2000000    0.815492008943

     56   P     175             0.3827000    1.000000000000

     57   P     176             0.1209000    1.000000000000

     58   D     177             1.0970000    1.000000000000

     59   D     178             0.3180000    1.000000000000

     60   F     179             0.7610000    1.000000000000

 H         

     61   S     180            33.8700000    0.025494863235
     61   S     181             5.0950000    0.190362765893
     61   S     182             1.1590000    0.852162022245

     62   S     183             0.3258000    1.000000000000

     63   S     184             0.1027000    1.000000000000

     64   P     185             1.4070000    1.000000000000

     65   P     186             0.3880000    1.000000000000

     66   D     187             1.0570000    1.000000000000

 H         

     67   S     188            33.8700000    0.025494863235
     67   S     189             5.0950000    0.190362765893
     67   S     190             1.1590000    0.852162022245

     68   S     191             0.3258000    1.000000000000

     69   S     192             0.1027000    1.000000000000

     70   P     193             1.4070000    1.000000000000

     71   P     194             0.3880000    1.000000000000

     72   D     195             1.0570000    1.000000000000

 H         

     73   S     196            33.8700000    0.025494863235
     73   S     197             5.0950000    0.190362765893
     73   S     198             1.1590000    0.852162022245

     74   S     199             0.3258000    1.000000000000

     75   S     200             0.1027000    1.000000000000

     76   P     201             1.4070000    1.000000000000

     77   P     202             0.3880000    1.000000000000

     78   D     203             1.0570000    1.000000000000

 H         

     79   S     204            33.8700000    0.025494863235
     79   S     205             5.0950000    0.190362765893
     79   S     206             1.1590000    0.852162022245

     80   S     207             0.3258000    1.000000000000

     81   S     208             0.1027000    1.000000000000

     82   P     209             1.4070000    1.000000000000

     83   P     210             0.3880000    1.000000000000

     84   D     211             1.0570000    1.000000000000

 H         

     85   S     212            33.8700000    0.025494863235
     85   S     213             5.0950000    0.190362765893
     85   S     214             1.1590000    0.852162022245

     86   S     215             0.3258000    1.000000000000

     87   S     216             0.1027000    1.000000000000

     88   P     217             1.4070000    1.000000000000

     89   P     218             0.3880000    1.000000000000

     90   D     219             1.0570000    1.000000000000

 H         

     91   S     220            33.8700000    0.025494863235
     91   S     221             5.0950000    0.190362765893
     91   S     222             1.1590000    0.852162022245

     92   S     223             0.3258000    1.000000000000

     93   S     224             0.1027000    1.000000000000

     94   P     225             1.4070000    1.000000000000

     95   P     226             0.3880000    1.000000000000

     96   D     227             1.0570000    1.000000000000

 H         

     97   S     228            33.8700000    0.025494863235
     97   S     229             5.0950000    0.190362765893
     97   S     230             1.1590000    0.852162022245

     98   S     231             0.3258000    1.000000000000

     99   S     232             0.1027000    1.000000000000

    100   P     233             1.4070000    1.000000000000

    101   P     234             0.3880000    1.000000000000

    102   D     235             1.0570000    1.000000000000

 H         

    103   S     236            33.8700000    0.025494863235
    103   S     237             5.0950000    0.190362765893
    103   S     238             1.1590000    0.852162022245

    104   S     239             0.3258000    1.000000000000

    105   S     240             0.1027000    1.000000000000

    106   P     241             1.4070000    1.000000000000

    107   P     242             0.3880000    1.000000000000

    108   D     243             1.0570000    1.000000000000

 H         

    109   S     244            33.8700000    0.025494863235
    109   S     245             5.0950000    0.190362765893
    109   S     246             1.1590000    0.852162022245

    110   S     247             0.3258000    1.000000000000

    111   S     248             0.1027000    1.000000000000

    112   P     249             1.4070000    1.000000000000

    113   P     250             0.3880000    1.000000000000

    114   D     251             1.0570000    1.000000000000

 TOTAL NUMBER OF BASIS SET SHELLS             =  114
 NUMBER OF CARTESIAN GAUSSIAN BASIS FUNCTIONS =  354
 NOTE: THIS RUN WILL RESTRICT THE MO VARIATION SPACE TO SPHERICAL HARMONICS.
 THE NUMBER OF ORBITALS KEPT IN THE VARIATIONAL SPACE WILL BE PRINTED LATER.
 NUMBER OF ELECTRONS                          =  104
 CHARGE OF MOLECULE                           =    3
 SPIN MULTIPLICITY                            =    1
 NUMBER OF OCCUPIED ORBITALS (ALPHA)          =   52
 NUMBER OF OCCUPIED ORBITALS (BETA )          =   52
 TOTAL NUMBER OF ATOMS                        =   15
 THE NUCLEAR REPULSION ENERGY IS      602.1748966133
 NOTE THIS RUN IS USING CORE POTENTIALS, AND THE NUMBER OF ELECTRONS,
 OCCUPIED ORBITALS, AND NUCLEAR REPULSION ENERGY WILL BE ADJUSTED BELOW
 AFTER REMOVAL OF THE CORE CHARGES.

     $CONTRL OPTIONS
     ---------------
 SCFTYP=RHF          RUNTYP=OPTIMIZE     EXETYP=RUN     
 MPLEVL=       2     CITYP =NONE         CCTYP =NONE         VBTYP =NONE    
 DFTTYP=NONE         TDDFT =NONE    
 MULT  =       1     ICHARG=       3     NZVAR =      39     COORD =UNIQUE  
 PP    =READ         RELWFN=NONE         LOCAL =NONE         NUMGRD=       F
 ISPHER=       1     NOSYM =       0     MAXIT =     200     UNITS =ANGS    
 PLTORB=       F     MOLPLT=       F     AIMPAC=       F     FRIEND=        
 NPRINT=       7     IREST =       0     GEOM  =INPUT   
 NORMF =       0     NORMP =       0     ITOL  =      20     ICUT  =      11
 INTTYP=BEST         GRDTYP=BEST         QMTTOL= 1.0E-06

     $SYSTEM OPTIONS
     ---------------
  REPLICATED MEMORY=   300000000 WORDS (ON EVERY NODE).
 DISTRIBUTED MEMDDI=         300 MILLION WORDS IN AGGREGATE,
 MEMDDI DISTRIBUTED OVER  16 PROCESSORS IS    18750000 WORDS/PROCESSOR.
 TOTAL MEMORY REQUESTED ON EACH PROCESSOR=   318750000 WORDS.
 TIMLIM=      525600.00 MINUTES, OR     365.0 DAYS.
 PARALL= T  BALTYP=  DLB     KDIAG=    0  COREFL= F
 MXSEQ2=     300 MXSEQ3=     150  mem10=         0

          --------------
          ECP POTENTIALS
          --------------

 PARAMETERS FOR "LA-ECP  " ON ATOM    1 WITH ZCORE  46 AND LMAX  4 ARE
 FOR L= 4      COEFF    N           ZETA
    1       -2.85665    1        1.42345
 FOR L= 0      COEFF    N           ZETA
    1        8.85347    0       22.29739
    2      -68.41778    2        1.64320
    3      110.12463    2        1.85122
 FOR L= 1      COEFF    N           ZETA
    1        2.98675    0        1.77635
    2      -35.51815    2        3.98941
    3       53.65423    2        2.47524
 FOR L= 2      COEFF    N           ZETA
    1        1.67298    0        1.52169
    2       18.46625    2        1.52182
 FOR L= 3      COEFF    N           ZETA
    1       -4.64430    1        2.67762
    2      -14.43101    1       10.06608

 THE ECP RUN REMOVES   46 CORE ELECTRONS, AND THE SAME NUMBER OF PROTONS.
 NUMBER OF ELECTRONS KEPT IN THE CALCULATION IS =   58
 NUMBER OF OCCUPIED ORBITALS (ALPHA) KEPT IS    =   29
 NUMBER OF OCCUPIED ORBITALS (BETA ) KEPT IS    =   29
 THE ADJUSTED NUCLEAR REPULSION ENERGY=      321.6085725936
          ECP ANGULAR INTS.........     0.03 SECONDS

          ----------------
          PROPERTIES INPUT
          ----------------

     MOMENTS            FIELD           POTENTIAL          DENSITY
 IEMOM =       1   IEFLD =       0   IEPOT =       0   IEDEN =       0
 WHERE =COMASS     WHERE =NUCLEI     WHERE =NUCLEI     WHERE =NUCLEI  
 OUTPUT=BOTH       OUTPUT=BOTH       OUTPUT=BOTH       OUTPUT=BOTH    
 IEMINT=       0   IEFINT=       0                     IEDINT=       0
                                                       MORB  =       0
          EXTRAPOLATION IN EFFECT
          SOSCF IN EFFECT
 ORBITAL PRINTING OPTION: NPREO=     1   354     2     1

     -------------------------------
     INTEGRAL TRANSFORMATION OPTIONS
     -------------------------------
     NWORD  =            0
     CUTOFF = 1.0E-09     MPTRAN =       0
     DIRTRF =       T     AOINTS =DUP     

          ----------------------
          INTEGRAL INPUT OPTIONS
          ----------------------
 NOPK  =       1 NORDER=       0 SCHWRZ=       T

          -----------------------
          MP2 CONTROL INFORMATION
          -----------------------
          NACORE =       13  NBCORE =       13
          LMOMP2 =        F  AOINTS = DUP     
          METHOD =        2  NWORD  =               0
          MP2PRP =        F  OSPT   = NONE    
          CUTOFF = 1.00E-09  CPHFBS = BASISAO 
          CODE   = DDI     

          NUMBER OF CORE -A-  ORBITALS =    13
          NUMBER OF CORE -B-  ORBITALS =    13
          NUMBER OF OCC. -A-  ORBITALS =    29
          NUMBER OF OCC. -B-  ORBITALS =    29
          NUMBER OF MOLECULAR ORBITALS =   354
          NUMBER OF   BASIS  FUNCTIONS =   354

 
 
 -----------------------------------------------
  STATISTICS ON AUTOMATIC COORDINATE GENERATION 
 -----------------------------------------------
  NUMBER OF USER SPECIFIED BONDS                              0
  NUMBER OF BONDS                                            14
  NUMBER OF ANGLES                                           25
  NUMBER OF TORSIONS                                         30
  NUMBER OF EXTRA COORD.                                      0
  NUMBER OF EXTRA COORD. FOR CONSTRAINTS                      0
  NUMBER OF CONSTRAINED COORD.                                1
 
  TOTAL NUMBER OF PRIMITIVES                                 69
 -----------------------------------------------

   --- ENCODED Z MATRIX ---
 COORD  TYPE   I   J   K   L   M   N
    1      1    1   3
    2      1    2   4
    3      1    2   3
    4      1    2   6
    5      1    2   5
    6      1    4   8
    7      1    4   7
    8      1    4   9
    9      1    5  12
   10      1    5  11
   11      1    5  10
   12      1    6  15
   13      1    6  14
   14      1    6  13
   15      2    1   3   2
   16      2    2   5  11
   17      2    2   4   8
   18      2    2   6  13
   19      2    2   6  14
   20      2    2   4   9
   21      2    2   5  12
   22      2    2   5  10
   23      2    2   4   7
   24      2    2   6  15
   25      2    3   2   4
   26      2    3   2   5
   27      2    3   2   6
   28      2    4   2   6
   29      2    4   2   5
   30      2    5   2   6
   31      2    7   4   9
   32      2    7   4   8
   33      2    8   4   9
   34      2   10   5  11
   35      2   10   5  12
   36      2   11   5  12
   37      2   13   6  14
   38      2   13   6  15
   39      2   14   6  15
   40      3    1   3   2   5
   41      3    1   3   2   4
   42      3    1   3   2   6
   43      3    3   2   4   8
   44      3    3   2   6  15
   45      3    3   2   6  14
   46      3    3   2   4   7
   47      3    3   2   5  10
   48      3    3   2   6  13
   49      3    3   2   5  11
   50      3    3   2   5  12
   51      3    3   2   4   9
   52      3    4   2   6  15
   53      3    4   2   6  14
   54      3    4   2   5  10
   55      3    4   2   6  13
   56      3    4   2   5  12
   57      3    4   2   5  11
   58      3    5   2   6  15
   59      3    5   2   6  14
   60      3    5   2   4   7
   61      3    5   2   6  13
   62      3    5   2   4   9
   63      3    5   2   4   8
   64      3    6   2   4   7
   65      3    6   2   5  10
   66      3    6   2   5  11
   67      3    6   2   5  12
   68      3    6   2   4   9
   69      3    6   2   4   8

          INDEP./SYM. INTERNAL COORDINATES
          --------------------------------
 CRD  1=   1.0000 (  1)
 CRD  2=   0.1241 ( 20)  0.1200 ( 22)  0.1258 ( 24)  0.1643 ( 25)  0.2205 ( 26)
          -0.3848 ( 27)  0.2772 ( 28) -0.4837 ( 29)  0.2066 ( 30)  0.1733 ( 40)
          -0.1908 ( 41) -0.1397 ( 46)  0.1332 ( 50) -0.1096 ( 51)  0.1217 ( 52)
           0.1620 ( 53) -0.1386 ( 58) -0.1686 ( 61) -0.1271 ( 65) -0.1564 ( 66)
           0.1062 ( 68)  0.1458 ( 69)
 CRD  3=  -0.2491 (  2)  0.2259 (  5)  0.3726 ( 15)  0.1952 ( 18) -0.1854 ( 19)
          -0.1349 ( 20)  0.1578 ( 22) -0.3544 ( 28)  0.3907 ( 30)  0.1526 ( 40)
           0.1136 ( 41) -0.2662 ( 42)  0.1463 ( 44) -0.1113 ( 57) -0.1171 ( 63)
           0.1241 ( 64)  0.1332 ( 65)  0.1234 ( 67)  0.1350 ( 68)
 CRD  4=  -0.1653 (  2)  0.3873 (  4) -0.2220 (  5)  0.1344 ( 18)  0.1623 ( 19)
          -0.2219 ( 21) -0.2143 ( 23) -0.1055 ( 25) -0.1416 ( 26)  0.2470 ( 27)
          -0.1664 ( 29) -0.1217 ( 37)  0.1532 ( 40) -0.1695 ( 41)  0.2450 ( 43)
           0.1961 ( 46) -0.1510 ( 47) -0.2222 ( 49) -0.1831 ( 50)  0.1721 ( 51)
           0.1511 ( 54)  0.1190 ( 56) -0.1277 ( 60) -0.1516 ( 62) -0.1134 ( 68)
 CRD  5=  -0.3965 (  2) -0.3965 (  4) -0.3965 (  5) -0.2736 ( 16) -0.2736 ( 17)
          -0.2736 ( 24)  0.1192 ( 32)  0.1193 ( 33)  0.1192 ( 34)  0.1191 ( 36)
           0.1191 ( 38)  0.1192 ( 39) -0.1211 ( 54)  0.1211 ( 55) -0.1211 ( 59)
           0.1211 ( 62) -0.1211 ( 64)  0.1211 ( 67)
 CRD  6=  -0.2467 (  2) -0.3433 (  3) -0.2465 (  4) -0.2459 (  5)  0.2310 ( 16)
           0.2314 ( 17) -0.2133 ( 18) -0.2126 ( 19) -0.2127 ( 20) -0.2132 ( 21)
          -0.2121 ( 22) -0.2138 ( 23)  0.2310 ( 24)  0.1638 ( 31)  0.1635 ( 35)
           0.1637 ( 37)  0.1289 ( 54) -0.1289 ( 55)  0.1288 ( 59) -0.1288 ( 62)
           0.1289 ( 64) -0.1287 ( 67)
 CRD  7=  -0.3800 (  2)  0.3473 (  5)  0.1094 ( 13) -0.1080 ( 14) -0.1643 ( 15)
           0.1784 ( 16) -0.1942 ( 17) -0.3659 ( 18)  0.3817 ( 19)  0.2834 ( 21)
          -0.1395 ( 22) -0.2412 ( 23)  0.1901 ( 32) -0.1968 ( 36)  0.1236 ( 38)
          -0.1458 ( 39)
 CRD  8=  -0.1405 (  2)  0.3225 (  4) -0.1824 (  5) -0.1953 ( 16) -0.1478 ( 17)
          -0.3553 ( 20)  0.3410 ( 21) -0.3217 ( 22)  0.3680 ( 23)  0.3448 ( 24)
           0.1897 ( 33)  0.1981 ( 34) -0.1551 ( 38) -0.1335 ( 39)
 CRD  9=  -0.1158 (  2)  0.1054 (  5) -0.3102 ( 15) -0.4062 ( 16)  0.4470 ( 17)
          -0.2900 ( 20)  0.2019 ( 21)  0.2752 ( 22) -0.2352 ( 23)  0.2090 ( 31)
          -0.1901 ( 35) -0.1099 ( 53)  0.1096 ( 56) -0.1098 ( 59)  0.1083 ( 67)
 CRD 10=  -0.3704 ( 18)  0.3708 ( 19) -0.3714 ( 20) -0.3698 ( 21)  0.3711 ( 22)
           0.3703 ( 23) -0.1315 ( 32)  0.1312 ( 33) -0.1307 ( 34)  0.1314 ( 36)
           0.1312 ( 38) -0.1311 ( 39)
 CRD 11=   0.1006 ( 11)  0.1411 ( 12) -0.2933 ( 16) -0.2183 ( 17) -0.2808 ( 18)
          -0.2448 ( 19)  0.3011 ( 20)  0.3220 ( 22)  0.5109 ( 24)  0.1162 ( 32)
          -0.1331 ( 35)  0.1240 ( 36)  0.2318 ( 37) -0.1075 ( 39)
 CRD 12=   0.7678 (  3)  0.1064 (  6)  0.1053 ( 10)  0.1057 ( 12)  0.2240 ( 16)
           0.2269 ( 17) -0.1103 ( 18) -0.1075 ( 19) -0.1087 ( 20) -0.1083 ( 21)
          -0.1088 ( 22) -0.1103 ( 23)  0.2252 ( 24)  0.1159 ( 31)  0.1150 ( 35)
           0.1154 ( 37)
 CRD 13=  -0.1641 (  2)  0.1487 (  5) -0.1322 (  6)  0.1207 ( 10) -0.3758 ( 15)
           0.2586 ( 16) -0.2834 ( 17)  0.2666 ( 18) -0.2761 ( 19) -0.1978 ( 21)
           0.1141 ( 22)  0.1619 ( 23) -0.2046 ( 25)  0.1860 ( 26)  0.1311 ( 28)
          -0.1449 ( 30)  0.1681 ( 33) -0.1722 ( 34) -0.1157 ( 38) -0.1077 ( 52)
          -0.1315 ( 53)  0.1041 ( 54) -0.1307 ( 55)  0.1124 ( 56) -0.1010 ( 58)
          -0.1249 ( 59) -0.1241 ( 61)
 CRD 14=  -0.2089 ( 43) -0.2088 ( 44) -0.1810 ( 45) -0.1812 ( 46) -0.1809 ( 47)
          -0.1810 ( 48) -0.2086 ( 49) -0.1808 ( 50) -0.1812 ( 51) -0.2088 ( 52)
          -0.1811 ( 53) -0.1810 ( 54) -0.1811 ( 55) -0.1809 ( 56) -0.2087 ( 57)
          -0.2088 ( 58) -0.1810 ( 59) -0.1811 ( 60) -0.1810 ( 61) -0.1811 ( 62)
          -0.2088 ( 63) -0.1811 ( 64) -0.1809 ( 65) -0.2087 ( 66) -0.1809 ( 67)
          -0.1811 ( 68) -0.2088 ( 69)
 CRD 15=   0.1064 (  7)  0.1328 (  9) -0.1969 ( 13) -0.1928 ( 14) -0.1020 ( 38)
          -0.1079 ( 39) -0.2656 ( 43) -0.2449 ( 46)  0.2428 ( 47)  0.2412 ( 49)
           0.2183 ( 50) -0.2631 ( 51)  0.1750 ( 54)  0.1506 ( 56)  0.1735 ( 57)
          -0.1734 ( 60) -0.1915 ( 62) -0.1941 ( 63) -0.1864 ( 64)  0.1926 ( 65)
           0.1911 ( 66)  0.1681 ( 67) -0.2046 ( 68) -0.2071 ( 69)
 CRD 16=   0.3952 (  6)  0.3472 (  7)  0.3089 (  8) -0.3166 (  9) -0.3445 ( 10)
          -0.2573 ( 11)  0.1069 ( 16) -0.1224 ( 17) -0.1761 ( 20)  0.1156 ( 21)
           0.1641 ( 22) -0.1440 ( 23)  0.1834 ( 31)  0.1215 ( 32)  0.1400 ( 33)
          -0.1280 ( 34) -0.1603 ( 35) -0.1004 ( 36)
 CRD 17=   0.1719 (  6)  0.1820 (  8)  0.1549 (  9)  0.2597 ( 10)  0.2451 ( 11)
          -0.4312 ( 12) -0.3241 ( 13) -0.3365 ( 14)  0.1618 ( 18)  0.1710 ( 19)
          -0.1316 ( 21) -0.1018 ( 23)  0.1232 ( 24)  0.1172 ( 35) -0.1943 ( 37)
          -0.1294 ( 38) -0.1345 ( 39) -0.1009 ( 54)  0.1056 ( 60)  0.1103 ( 62)
           0.1041 ( 63)  0.1024 ( 68)
 CRD 18=  -0.1007 (  2) -0.1008 (  4) -0.1007 (  5) -0.2692 (  6) -0.3024 (  7)
          -0.3023 (  8) -0.3026 (  9) -0.2691 ( 10) -0.3024 ( 11) -0.2695 ( 12)
          -0.3028 ( 13) -0.3027 ( 14)  0.1121 ( 16)  0.1121 ( 17)  0.1014 ( 18)
           0.1015 ( 19)  0.1013 ( 20)  0.1013 ( 21)  0.1014 ( 22)  0.1012 ( 23)
           0.1122 ( 24) -0.1067 ( 31) -0.1049 ( 32) -0.1050 ( 33) -0.1049 ( 34)
          -0.1069 ( 35) -0.1049 ( 36) -0.1070 ( 37) -0.1049 ( 38) -0.1050 ( 39)
 CRD 19=  -0.1484 (  2)  0.1345 (  5) -0.1673 (  7) -0.2742 (  8)  0.1280 (  9)
           0.2722 ( 11) -0.1053 ( 13)  0.1468 ( 14) -0.1880 ( 15) -0.1094 ( 43)
           0.2562 ( 44)  0.2414 ( 45) -0.1035 ( 46) -0.1381 ( 47)  0.2416 ( 48)
          -0.1469 ( 49) -0.1386 ( 50) -0.1029 ( 51)  0.2132 ( 52)  0.1984 ( 53)
           0.1986 ( 55) -0.1068 ( 57)  0.2165 ( 58)  0.2018 ( 59)  0.2019 ( 61)
          -0.1040 ( 64) -0.1309 ( 65) -0.1397 ( 66) -0.1314 ( 67) -0.1034 ( 68)
          -0.1099 ( 69)
 CRD 20=   0.1949 (  6) -0.2679 (  8)  0.2754 ( 10) -0.2889 ( 11) -0.4803 ( 12)
           0.2119 ( 13)  0.2508 ( 14)  0.1485 ( 32) -0.1398 ( 35)  0.1601 ( 36)
           0.2438 ( 37) -0.1154 ( 38) -0.1368 ( 39) -0.1336 ( 45)  0.1301 ( 48)
          -0.1399 ( 53)  0.1238 ( 55) -0.1266 ( 59)  0.1371 ( 61)
 CRD 21=  -0.4071 (  6)  0.2855 (  7) -0.3074 (  9)  0.3677 ( 10) -0.2690 ( 13)
           0.2279 ( 14)  0.2102 ( 31) -0.1594 ( 33)  0.1700 ( 34) -0.1897 ( 35)
           0.1413 ( 38) -0.1175 ( 39)  0.1202 ( 44) -0.1022 ( 46)  0.1118 ( 47)
           0.1197 ( 51)  0.1235 ( 52)  0.1064 ( 54)  0.1227 ( 58) -0.1078 ( 60)
           0.1141 ( 62)  0.1139 ( 65)  0.1229 ( 68)
 CRD 22=  -0.3845 (  6)  0.1856 (  7)  0.1661 (  8)  0.1606 (  9) -0.3812 ( 10)
           0.1876 ( 11) -0.3767 ( 12)  0.1814 ( 13)  0.1624 ( 14)  0.1955 ( 31)
          -0.1036 ( 33)  0.1937 ( 35) -0.1048 ( 36)  0.1914 ( 37) -0.1014 ( 38)
          -0.1015 ( 45) -0.1036 ( 46) -0.1022 ( 47)  0.1049 ( 48)  0.1067 ( 50)
           0.1072 ( 51) -0.1174 ( 54)  0.1202 ( 55) -0.1168 ( 59)  0.1224 ( 62)
          -0.1188 ( 64)  0.1220 ( 67)
 CRD 23=  -0.3134 (  7)  0.3284 (  8)  0.3224 (  9) -0.3127 ( 11) -0.3142 ( 13)
           0.3253 ( 14) -0.1765 ( 32)  0.1680 ( 33) -0.1731 ( 34)  0.1678 ( 36)
           0.1684 ( 38) -0.1746 ( 39)  0.1256 ( 43)  0.1254 ( 44)  0.1242 ( 49)
           0.1261 ( 52)  0.1237 ( 57)  0.1249 ( 58)  0.1260 ( 63)  0.1248 ( 66)
           0.1250 ( 69)
 CRD 24=  -0.4056 (  7)  0.3160 (  8) -0.3892 (  9)  0.1217 ( 10)  0.2632 ( 11)
          -0.2058 ( 12)  0.1451 ( 13) -0.1748 ( 32)  0.2281 ( 33)  0.2197 ( 34)
          -0.1443 ( 36)  0.1190 ( 37)  0.1164 ( 43)  0.1283 ( 47) -0.1055 ( 49)
          -0.1267 ( 51)  0.1414 ( 54) -0.1402 ( 62)  0.1029 ( 63)  0.1356 ( 65)
          -0.1360 ( 68)  0.1070 ( 69)
 CRD 25=   0.2464 (  6) -0.2356 (  8) -0.1212 (  9) -0.2204 ( 10)  0.2829 ( 11)
          -0.3393 ( 13)  0.3590 ( 14) -0.1491 ( 31)  0.1579 ( 32)  0.1334 ( 35)
          -0.1856 ( 36)  0.2080 ( 38) -0.2223 ( 39) -0.1369 ( 45)  0.1305 ( 46)
          -0.1211 ( 48)  0.1432 ( 50) -0.1526 ( 53) -0.1367 ( 55)  0.1450 ( 56)
          -0.1542 ( 59)  0.1288 ( 60) -0.1384 ( 61)  0.1460 ( 64)  0.1605 ( 67)
 CRD 26=  -0.1133 (  2)  0.2654 (  4) -0.1521 (  5) -0.2386 (  7) -0.2618 (  9)
           0.1289 ( 12)  0.2570 ( 13)  0.2320 ( 14)  0.1593 ( 18)  0.1823 ( 19)
          -0.2101 ( 21) -0.1967 ( 23)  0.1004 ( 24) -0.1188 ( 27) -0.1088 ( 28)
           0.1899 ( 29)  0.1566 ( 32)  0.1260 ( 35)  0.1627 ( 36) -0.2203 ( 37)
          -0.1013 ( 38) -0.1214 ( 39) -0.1344 ( 40)  0.1490 ( 41) -0.1417 ( 43)
           0.1288 ( 49) -0.1439 ( 54) -0.1219 ( 56)  0.1280 ( 60)  0.1443 ( 62)
           0.1008 ( 68)
 CRD 27=   0.4667 (  3) -0.2684 (  6) -0.2679 ( 10) -0.2681 ( 12) -0.1524 ( 16)
          -0.1528 ( 17) -0.1526 ( 24)  0.1599 ( 32)  0.1605 ( 33)  0.1599 ( 34)
           0.1596 ( 36)  0.1596 ( 38)  0.1603 ( 39) -0.1010 ( 52)  0.1758 ( 54)
          -0.1756 ( 55)  0.1008 ( 57)  0.1008 ( 58)  0.1759 ( 59) -0.1758 ( 62)
          -0.1007 ( 63)  0.1756 ( 64) -0.1011 ( 66) -0.1758 ( 67)  0.1010 ( 69)
 CRD 28=   0.1304 (  6)  0.1624 (  7)  0.2602 (  8) -0.1262 (  9) -0.1189 ( 10)
          -0.2574 ( 11) -0.1342 ( 14) -0.2097 ( 15) -0.1448 ( 16)  0.1591 ( 17)
           0.2161 ( 20) -0.1367 ( 21) -0.2077 ( 22)  0.1631 ( 23) -0.1670 ( 25)
           0.1512 ( 26) -0.2279 ( 31) -0.1182 ( 32) -0.1943 ( 33)  0.1931 ( 34)
           0.2067 ( 35)  0.1040 ( 38) -0.1240 ( 42) -0.1100 ( 43)  0.2579 ( 44)
           0.1839 ( 45) -0.1153 ( 47)  0.1854 ( 48) -0.1477 ( 49)
 CRD 29=  -0.3201 (  2)  0.1840 (  3) -0.3202 (  4) -0.3197 (  5)  0.1796 (  7)
           0.1793 (  8)  0.1796 (  9)  0.1792 ( 11)  0.1794 ( 13)  0.1796 ( 14)
           0.1222 ( 16)  0.1223 ( 17)  0.1570 ( 18)  0.1569 ( 19)  0.1569 ( 20)
           0.1568 ( 21)  0.1568 ( 22)  0.1569 ( 23)  0.1223 ( 24) -0.2242 ( 31)
          -0.1057 ( 32) -0.1055 ( 33) -0.1052 ( 34) -0.2241 ( 35) -0.1055 ( 36)
          -0.2242 ( 37) -0.1056 ( 38) -0.1055 ( 39)
 CRD 30=  -0.2339 (  2)  0.5478 (  4) -0.3143 (  5)  0.1565 (  8)  0.1115 ( 10)
           0.1707 ( 11) -0.1947 ( 12) -0.1453 ( 13) -0.1621 ( 14)  0.1090 ( 16)
          -0.1875 ( 18) -0.1839 ( 19)  0.1241 ( 22) -0.1901 ( 24) -0.1540 ( 33)
          -0.1765 ( 34)  0.1707 ( 37)  0.2045 ( 38)  0.1916 ( 39)
 CRD 31=  -0.1876 (  3) -0.1767 (  6) -0.1765 ( 10) -0.1766 ( 12)  0.1279 ( 16)
           0.1278 ( 17)  0.1278 ( 24)  0.1001 ( 26)  0.1000 ( 27) -0.1360 ( 31)
          -0.1359 ( 35) -0.1359 ( 37)  0.1286 ( 45)  0.1280 ( 46)  0.1283 ( 47)
          -0.1278 ( 48) -0.1282 ( 50) -0.1285 ( 51)  0.1325 ( 52)  0.2612 ( 53)
          -0.2610 ( 56) -0.1332 ( 57) -0.1332 ( 58)  0.2609 ( 60) -0.2609 ( 61)
           0.1332 ( 63)  0.2613 ( 65)  0.1326 ( 66) -0.2612 ( 68) -0.1324 ( 69)
 CRD 32=  -0.4620 (  2)  0.4191 (  5)  0.1577 (  6)  0.1537 (  7) -0.1744 (  9)
          -0.1431 ( 10) -0.1948 ( 13)  0.1808 ( 14)  0.1230 ( 15) -0.1042 ( 16)
           0.1150 ( 17)  0.1138 ( 20) -0.1090 ( 21) -0.1023 ( 22)  0.1189 ( 23)
           0.1013 ( 25) -0.2000 ( 32)  0.2082 ( 36) -0.1303 ( 38)  0.1561 ( 39)
           0.1028 ( 43) -0.2409 ( 44)  0.1381 ( 49) -0.1039 ( 52) -0.1020 ( 58)
 CRD 33=   0.2306 (  7) -0.2309 (  8) -0.2311 (  9)  0.2314 ( 11)  0.2313 ( 13)
          -0.2308 ( 14) -0.1771 ( 32)  0.1769 ( 33) -0.1772 ( 34)  0.1776 ( 36)
           0.1774 ( 38) -0.1771 ( 39)  0.1514 ( 43)  0.1515 ( 44) -0.1131 ( 45)
          -0.1134 ( 46) -0.1132 ( 47) -0.1136 ( 48)  0.1517 ( 49) -0.1137 ( 50)
          -0.1130 ( 51)  0.1516 ( 52) -0.1130 ( 53) -0.1131 ( 54) -0.1135 ( 55)
          -0.1136 ( 56)  0.1517 ( 57)  0.1515 ( 58) -0.1131 ( 59) -0.1135 ( 60)
          -0.1136 ( 61) -0.1131 ( 62)  0.1513 ( 63) -0.1135 ( 64) -0.1131 ( 65)
           0.1517 ( 66) -0.1136 ( 67) -0.1131 ( 68)  0.1513 ( 69)
 CRD 34=   0.1289 (  6)  0.1160 (  7) -0.2298 (  8)  0.1577 ( 10) -0.2294 ( 11)
          -0.2858 ( 12)  0.1131 ( 13)  0.1392 ( 14)  0.1072 ( 20)  0.1067 ( 22)
           0.1378 ( 29) -0.1859 ( 32)  0.1133 ( 35) -0.1881 ( 36) -0.2054 ( 37)
           0.1103 ( 38)  0.1303 ( 39)  0.1061 ( 43)  0.1795 ( 45) -0.1750 ( 46)
          -0.1655 ( 48)  0.1855 ( 50)  0.1423 ( 53) -0.2027 ( 55)  0.1660 ( 56)
          -0.1171 ( 57)  0.2164 ( 59) -0.1596 ( 60) -0.1285 ( 61)  0.1216 ( 63)
          -0.1925 ( 64)  0.2072 ( 67)
 CRD 35=  -0.2879 (  6)  0.1938 (  7) -0.1980 (  9)  0.2676 ( 10) -0.1531 ( 13)
           0.1346 ( 14)  0.1003 ( 17)  0.1069 ( 30) -0.2083 ( 31)  0.1706 ( 33)
          -0.1724 ( 34)  0.1935 ( 35) -0.1185 ( 38)  0.1012 ( 39)  0.1310 ( 46)
          -0.2149 ( 47)  0.1084 ( 48)  0.1091 ( 50) -0.2174 ( 51) -0.2478 ( 54)
           0.1208 ( 55)  0.1172 ( 61) -0.2508 ( 62)  0.1553 ( 64) -0.1941 ( 65)
           0.1299 ( 67) -0.1932 ( 68)
 CRD 36=   0.1451 (  4)  0.2431 (  7) -0.1472 (  8)  0.2411 (  9) -0.1127 ( 10)
          -0.1128 ( 11)  0.1976 ( 12) -0.1300 ( 13) -0.1158 ( 21) -0.1222 ( 23)
          -0.1089 ( 24)  0.1237 ( 29) -0.1181 ( 32)  0.1763 ( 33)  0.1725 ( 34)
          -0.1002 ( 35)  0.1758 ( 37)  0.1207 ( 43) -0.1222 ( 45)  0.1819 ( 47)
           0.1431 ( 48) -0.1092 ( 49) -0.1735 ( 51) -0.1674 ( 53) -0.1060 ( 56)
          -0.2458 ( 57) -0.1007 ( 59)  0.1646 ( 61)  0.2643 ( 63) -0.2078 ( 66)
           0.2359 ( 69)
 CRD 37=  -0.2302 (  2)  0.2091 (  5) -0.1116 (  6)  0.1657 (  8)  0.1014 ( 10)
          -0.1871 ( 11)  0.1930 ( 13) -0.2073 ( 14)  0.1436 ( 18) -0.1423 ( 19)
           0.1188 ( 25) -0.1077 ( 26)  0.1370 ( 28) -0.1511 ( 30) -0.1219 ( 31)
           0.1107 ( 35) -0.1126 ( 36)  0.1483 ( 38) -0.1533 ( 39)  0.1514 ( 42)
          -0.2084 ( 45)  0.1706 ( 46) -0.1934 ( 48)  0.1920 ( 50)  0.2691 ( 52)
           0.1062 ( 56) -0.1191 ( 57)  0.2763 ( 58)  0.1198 ( 60) -0.1213 ( 65)
          -0.1926 ( 66) -0.1312 ( 68) -0.1573 ( 69)
 CRD 38=   0.7025 ( 15) -0.2947 ( 25)  0.2673 ( 26)  0.2255 ( 28) -0.2487 ( 30)
           0.1338 ( 44)  0.1528 ( 45) -0.1130 ( 47)  0.1578 ( 48)  0.1167 ( 56)
           0.1051 ( 57)  0.1172 ( 60)  0.1000 ( 63)
 CRD 39=   0.5775 ( 40)  0.5772 ( 41)  0.5774 ( 42)

 THE DETERMINANT OF THE G MATRIX IS 10**(   -13)


                     --------------------
                     INTERNAL COORDINATES
                     --------------------

                 - - ATOMS - -         COORDINATE      COORDINATE
 NO.   TYPE    I  J  K  L  M  N        (BOHR,RAD)       (ANG,DEG)
 ----------------------------------------------------------------
   1 STRETCH   1  3                     5.0077739       2.6500000
   2 STRETCH   2  4                     3.3538460       1.7747790
   3 STRETCH   2  3                     3.3196218       1.7566683
   4 STRETCH   2  6                     3.3539733       1.7748464
   5 STRETCH   2  5                     3.3538992       1.7748072
   6 STRETCH   4  8                     2.0679643       1.0943196
   7 STRETCH   4  7                     2.0574453       1.0887532
   8 STRETCH   4  9                     2.0572881       1.0886701
   9 STRETCH   5 12                     2.0573449       1.0887001
  10 STRETCH   5 11                     2.0679960       1.0943364
  11 STRETCH   5 10                     2.0573635       1.0887099
  12 STRETCH   6 15                     2.0678311       1.0942492
  13 STRETCH   6 14                     2.0574193       1.0887395
  14 STRETCH   6 13                     2.0574658       1.0887641
  15 BEND      1  3  2                  3.1407285     179.9504864
  16 BEND      2  5 11                  1.8647629     106.8430437
  17 BEND      2  4  8                  1.8654887     106.8846315
  18 BEND      2  6 13                  1.9363405     110.9441357
  19 BEND      2  6 14                  1.9367673     110.9685932
  20 BEND      2  4  9                  1.9363663     110.9456164
  21 BEND      2  5 12                  1.9367468     110.9674169
  22 BEND      2  5 10                  1.9366586     110.9623649
  23 BEND      2  4  7                  1.9362777     110.9405404
  24 BEND      2  6 15                  1.8648449     106.8477426
  25 BEND      3  2  4                  1.8625915     106.7186329
  26 BEND      3  2  5                  1.8629232     106.7376352
  27 BEND      3  2  6                  1.8629692     106.7402727
  28 BEND      4  2  6                  1.9560829     112.0752918
  29 BEND      4  2  5                  1.9558860     112.0640120
  30 BEND      5  2  6                  1.9557846     112.0582053
  31 BEND      7  4  9                  1.9373963     111.0046285
  32 BEND      7  4  8                  1.8926647     108.4417006
  33 BEND      8  4  9                  1.8931684     108.4705596
  34 BEND     10  5 11                  1.8926604     108.4414529
  35 BEND     10  5 12                  1.9375674     111.0144323
  36 BEND     11  5 12                  1.8929064     108.4555452
  37 BEND     13  6 14                  1.9376724     111.0204481
  38 BEND     13  6 15                  1.8928290     108.4511126
  39 BEND     14  6 15                  1.8928573     108.4527372
  40 TORSION   1  3  2  5               0.6078242      34.8257609
  41 TORSION   1  3  2  4               2.7021086     154.8194186
  42 TORSION   1  3  2  6              -1.4865386     -85.1723900
  43 TORSION   3  2  4  8              -3.1397635    -179.8951976
  44 TORSION   3  2  6 15               3.1406228     179.9444323
  45 TORSION   3  2  6 14              -1.0822197     -62.0066193
  46 TORSION   3  2  4  7              -1.0795371     -61.8529181
  47 TORSION   3  2  5 10              -1.0836507     -62.0886112
  48 TORSION   3  2  6 13               1.0805476      61.9108182
  49 TORSION   3  2  5 11               3.1395369     179.8822159
  50 TORSION   3  2  5 12               1.0791952      61.8333328
  51 TORSION   3  2  4  9               1.0825410      62.0250294
  52 TORSION   4  2  6 15              -1.1093065     -63.5585802
  53 TORSION   4  2  6 14               0.9510363      54.4903681
  54 TORSION   4  2  5 10              -3.1167730    -178.5779384
  55 TORSION   4  2  6 13               3.1138036     178.4078057
  56 TORSION   4  2  5 12              -0.9539271     -54.6559945
  57 TORSION   4  2  5 11               1.1064146      63.3928887
  58 TORSION   5  2  6 15               1.1071274      63.4337280
  59 TORSION   5  2  6 14              -3.1157151    -178.5173236
  60 TORSION   5  2  4  7               0.9537852      54.6478664
  61 TORSION   5  2  6 13              -0.9529478     -54.5998861
  62 TORSION   5  2  4  9               3.1158633     178.5258139
  63 TORSION   5  2  4  8              -1.1064412     -63.3944130
  64 TORSION   6  2  4  7              -3.1130207    -178.3629494
  65 TORSION   6  2  5 10               0.9498725      54.4236833
  66 TORSION   6  2  5 11              -1.1101252     -63.6054896
  67 TORSION   6  2  5 12               3.1127184     178.3456273
  68 TORSION   6  2  4  9              -0.9509427     -54.4850018
  69 TORSION   6  2  4  8               1.1099381      63.5947712

     ------------------------------------------
     THE POINT GROUP IS C1 , NAXIS= 0, ORDER= 1
     ------------------------------------------

 -- VARIATIONAL SPACE WILL BE RESTRICTED TO PURE SPHERICAL HARMONICS ONLY --
 AFTER EXCLUDING CONTAMINANT COMBINATIONS FROM THE CARTESIAN GAUSSIAN BASIS
 SET, THE NUMBER OF SPHERICAL HARMONICS KEPT IN THE VARIATION SPACE IS  316

     DIMENSIONS OF THE SYMMETRY SUBSPACES ARE
 A   =  316

 ..... DONE SETTING UP THE RUN .....
 CPU     0: STEP CPU TIME=     0.08 TOTAL CPU TIME=        0.1 (    0.0 MIN)
 TOTAL WALL CLOCK TIME=        0.2 SECONDS, CPU UTILIZATION IS  52.94%


          -----------------------------
          STATIONARY POINT LOCATION RUN
          -----------------------------


           ** GEOMETRY CONSTRAINTS ARE BEING APPLIED. **

          TRANSFORMING DISPLACEMENT FROM INTERNALS TO CARTESIANS
          THE ROOT MEAN SQUARE ERROR IN ITERATION   1 IS   0.00000000
 WARNING! THE RADIUS IN CARTESIANS IS    0.00000
 OBTAINING INITIAL HESSIAN, HESS=GUESS   
 DIAGONAL GUESS HESSIAN IN INTERNAL COORDS IS
     1  0.2010     2  0.4333     3  0.3624     4  0.4333     5  0.4333
     6  0.3435     7  0.3472     8  0.3473     9  0.3472    10  0.3435
    11  0.3472    12  0.3435    13  0.3472    14  0.3472    15  0.2643
    16  0.2409    17  0.2409    18  0.2412    19  0.2412    20  0.2412
    21  0.2412    22  0.2412    23  0.2412    24  0.2409    25  0.2785
    26  0.2785    27  0.2785    28  0.2914    29  0.2914    30  0.2914
    31  0.2035    32  0.2032    33  0.2033    34  0.2032    35  0.2035
    36  0.2032    37  0.2035    38  0.2032    39  0.2033    40  0.2500
    41  0.2500    42  0.2500    43  0.2500    44  0.2500    45  0.2500
    46  0.2500    47  0.2500    48  0.2500    49  0.2500    50  0.2500
    51  0.2500    52  0.2500    53  0.2500    54  0.2500    55  0.2500
    56  0.2500    57  0.2500    58  0.2500    59  0.2500    60  0.2500
    61  0.2500    62  0.2500    63  0.2500    64  0.2500    65  0.2500
    66  0.2500    67  0.2500    68  0.2500    69  0.2500
 TRANSFORMING HESSIAN TO SYMMETRY COORDINATES

          PARAMETERS CONTROLLING GEOMETRY SEARCH ARE
          METHOD =QA                  UPHESS =BFGS    
          NNEG   =         0          NFRZ   =         0
          NSTEP  =        50          IFOLOW =         1
          HESS   =GUESS               RESTAR =         F
          IHREP  =         0          HSSEND =         F
          NPRT   =         0          NPUN   =         0
          OPTTOL = 1.000E-04          RMIN   = 1.500E-03
          RMAX   = 1.000E-01          RLIM   = 7.000E-02
          DXMAX  = 3.000E-01          PURIFY =         F
          MOVIE  =         F          TRUPD  =         T
          TRMAX  = 5.000E-01          TRMIN  = 5.000E-02
          ITBMAT =         5          STPT   =         F
          STSTEP = 1.000E-02          PROJCT=          T

 BEGINNING GEOMETRY SEARCH POINT NSERCH=   0 ...

 COORDINATES OF ALL ATOMS ARE (ANGS)
   ATOM   CHARGE       X              Y              Z
 ------------------------------------------------------------
 LA         57.0  -0.1739353441   1.1341682690  -4.0490164368
 P          15.0  -0.0211560557   0.1704654812   0.2482684988
 O           8.0  -0.0829685787   0.5547064011  -1.4647469092
 C           6.0  -1.4706479518   0.8829212450   0.9839453742
 C           6.0   1.4713709001   0.8932101145   0.8806796864
 C           6.0  -0.0102260763  -1.5998145667   0.3750312520
 H           1.0  -1.4723966186   1.9657543160   0.8705739762
 H           1.0  -1.4339153555   0.6467184674   2.0518378981
 H           1.0  -2.3750425406   0.4452161110   0.5647948592
 H           1.0   2.3474393887   0.4612430123   0.3998494046
 H           1.0   1.5105566994   0.6566482434   1.9484227103
 H           1.0   1.4581337589   1.9759637893   0.7678206837
 H           1.0   0.8719644234  -2.0190059119  -0.1060360535
 H           1.0  -0.9216075780  -2.0258610547  -0.0411679527
 H           1.0   0.0292841124  -1.8411613912   1.4416014059


                     --------------------
                     INTERNAL COORDINATES
                     --------------------

                 - - ATOMS - -         COORDINATE      COORDINATE
 NO.   TYPE    I  J  K  L  M  N        (BOHR,RAD)       (ANG,DEG)
 ----------------------------------------------------------------
   1 STRETCH   1  3                     5.0077739       2.6500000
   2 STRETCH   2  4                     3.3538460       1.7747790
   3 STRETCH   2  3                     3.3196218       1.7566683
   4 STRETCH   2  6                     3.3539733       1.7748464
   5 STRETCH   2  5                     3.3538992       1.7748072
   6 STRETCH   4  8                     2.0679643       1.0943196
   7 STRETCH   4  7                     2.0574453       1.0887532
   8 STRETCH   4  9                     2.0572881       1.0886701
   9 STRETCH   5 12                     2.0573449       1.0887001
  10 STRETCH   5 11                     2.0679960       1.0943364
  11 STRETCH   5 10                     2.0573635       1.0887099
  12 STRETCH   6 15                     2.0678311       1.0942492
  13 STRETCH   6 14                     2.0574193       1.0887395
  14 STRETCH   6 13                     2.0574658       1.0887641
  15 BEND      1  3  2                  3.1407285     179.9504864
  16 BEND      2  5 11                  1.8647629     106.8430437
  17 BEND      2  4  8                  1.8654887     106.8846315
  18 BEND      2  6 13                  1.9363405     110.9441357
  19 BEND      2  6 14                  1.9367673     110.9685932
  20 BEND      2  4  9                  1.9363663     110.9456164
  21 BEND      2  5 12                  1.9367468     110.9674169
  22 BEND      2  5 10                  1.9366586     110.9623649
  23 BEND      2  4  7                  1.9362777     110.9405404
  24 BEND      2  6 15                  1.8648449     106.8477426
  25 BEND      3  2  4                  1.8625915     106.7186329
  26 BEND      3  2  5                  1.8629232     106.7376352
  27 BEND      3  2  6                  1.8629692     106.7402727
  28 BEND      4  2  6                  1.9560829     112.0752918
  29 BEND      4  2  5                  1.9558860     112.0640120
  30 BEND      5  2  6                  1.9557846     112.0582053
  31 BEND      7  4  9                  1.9373963     111.0046285
  32 BEND      7  4  8                  1.8926647     108.4417006
  33 BEND      8  4  9                  1.8931684     108.4705596
  34 BEND     10  5 11                  1.8926604     108.4414529
  35 BEND     10  5 12                  1.9375674     111.0144323
  36 BEND     11  5 12                  1.8929064     108.4555452
  37 BEND     13  6 14                  1.9376724     111.0204481
  38 BEND     13  6 15                  1.8928290     108.4511126
  39 BEND     14  6 15                  1.8928573     108.4527372
  40 TORSION   1  3  2  5               0.6078242      34.8257609
  41 TORSION   1  3  2  4               2.7021086     154.8194186
  42 TORSION   1  3  2  6              -1.4865386     -85.1723900
  43 TORSION   3  2  4  8              -3.1397635    -179.8951976
  44 TORSION   3  2  6 15               3.1406228     179.9444323
  45 TORSION   3  2  6 14              -1.0822197     -62.0066193
  46 TORSION   3  2  4  7              -1.0795371     -61.8529181
  47 TORSION   3  2  5 10              -1.0836507     -62.0886112
  48 TORSION   3  2  6 13               1.0805476      61.9108182
  49 TORSION   3  2  5 11               3.1395369     179.8822159
  50 TORSION   3  2  5 12               1.0791952      61.8333328
  51 TORSION   3  2  4  9               1.0825410      62.0250294
  52 TORSION   4  2  6 15              -1.1093065     -63.5585802
  53 TORSION   4  2  6 14               0.9510363      54.4903681
  54 TORSION   4  2  5 10              -3.1167730    -178.5779384
  55 TORSION   4  2  6 13               3.1138036     178.4078057
  56 TORSION   4  2  5 12              -0.9539271     -54.6559945
  57 TORSION   4  2  5 11               1.1064146      63.3928887
  58 TORSION   5  2  6 15               1.1071274      63.4337280
  59 TORSION   5  2  6 14              -3.1157151    -178.5173236
  60 TORSION   5  2  4  7               0.9537852      54.6478664
  61 TORSION   5  2  6 13              -0.9529478     -54.5998861
  62 TORSION   5  2  4  9               3.1158633     178.5258139
  63 TORSION   5  2  4  8              -1.1064412     -63.3944130
  64 TORSION   6  2  4  7              -3.1130207    -178.3629494
  65 TORSION   6  2  5 10               0.9498725      54.4236833
  66 TORSION   6  2  5 11              -1.1101252     -63.6054896
  67 TORSION   6  2  5 12               3.1127184     178.3456273
  68 TORSION   6  2  4  9              -0.9509427     -54.4850018
  69 TORSION   6  2  4  8               1.1099381      63.5947712

          ********************
          1 ELECTRON INTEGRALS
          ********************
 TIME TO DO ORDINARY INTEGRALS=      0.01
 TIME TO DO      ECP INTEGRALS=      0.05
 ...... END OF ONE-ELECTRON INTEGRALS ......
 CPU     0: STEP CPU TIME=     0.07 TOTAL CPU TIME=        0.2 (    0.0 MIN)
 TOTAL WALL CLOCK TIME=        0.3 SECONDS, CPU UTILIZATION IS  55.17%

          -------------
          GUESS OPTIONS
          -------------
          GUESS =HUCKEL            NORB  =       0          NORDER=       0
          MIX   =       F          PRTMO =       F          PUNMO =       F
          TOLZ  = 1.0E-08          TOLE  = 1.0E-05
          SYMDEN=       F          PURIFY=       F

 INITIAL GUESS ORBITALS GENERATED BY HUCKEL   ROUTINE.
 HUCKEL GUESS REQUIRES    916545 WORDS.

 STATISTICS FOR GENERATION OF SYMMETRY ORBITAL -Q- MATRIX
 NUMBER OF CARTESIAN ATOMIC ORBITALS=        354
 NUMBER OF SPHERICAL CONTAMINANTS DROPPED=    38
 NUMBER OF LINEARLY DEPENDENT MOS DROPPED=     0
 TOTAL NUMBER OF MOS IN VARIATION SPACE=     316

 SYMMETRIES FOR INITIAL GUESS ORBITALS FOLLOW.   BOTH SET(S).
    29 ORBITALS ARE OCCUPIED (   13 CORE ORBITALS).
    14=A       15=A       16=A       17=A       18=A       19=A       20=A   
    21=A       22=A       23=A       24=A       25=A       26=A       27=A   
    28=A       29=A       30=A       31=A       32=A       33=A       34=A   
    35=A       36=A       37=A       38=A       39=A   
 ...... END OF INITIAL ORBITAL SELECTION ......
 CPU     0: STEP CPU TIME=     0.21 TOTAL CPU TIME=        0.4 (    0.0 MIN)
 TOTAL WALL CLOCK TIME=        0.8 SECONDS, CPU UTILIZATION IS  48.68%

                    ----------------------
                    AO INTEGRAL TECHNOLOGY
                    ----------------------
     S,P,L SHELL ROTATED AXIS INTEGRALS, REPROGRAMMED BY
        KAZUYA ISHIMURA (IMS) AND JOSE SIERRA (SYNSTAR).
     S,P,D,L SHELL ROTATED AXIS INTEGRALS PROGRAMMED BY
        KAZUYA ISHIMURA (INSTITUTE FOR MOLECULAR SCIENCE).
     S,P,D,F,G SHELL TO TOTAL QUARTET ANGULAR MOMENTUM SUM 5,
        ERIC PROGRAM BY GRAHAM FLETCHER (ELORET AND NASA ADVANCED
        SUPERCOMPUTING DIVISION, AMES RESEARCH CENTER).
     S,P,D,F,G,L SHELL GENERAL RYS QUADRATURE PROGRAMMED BY
        MICHEL DUPUIS (PACIFIC NORTHWEST NATIONAL LABORATORY).

          --------------------
          2 ELECTRON INTEGRALS
          --------------------

 DIRECT SCF METHOD SKIPS INTEGRAL STORAGE ON DISK.
 DIRECT TRANSFORMATION SKIPS AO INTEGRAL STORAGE ON DISK.
  ...... END OF TWO-ELECTRON INTEGRALS .....
 CPU     0: STEP CPU TIME=     0.00 TOTAL CPU TIME=        0.4 (    0.0 MIN)
 TOTAL WALL CLOCK TIME=        0.8 SECONDS, CPU UTILIZATION IS  48.05%

          --------------------------
                 RHF SCF CALCULATION
          --------------------------

     NUCLEAR ENERGY =       321.6085725936
     MAXIT =  200     NPUNCH=    2
     EXTRAP=T  DAMP=F  SHIFT=F  RSTRCT=F  DIIS=F  DEM=F  SOSCF=T
     DENSITY MATRIX CONV=  2.00E-06
     SOSCF WILL OPTIMIZE    8323 ORBITAL ROTATIONS, SOGTOL=   0.250
     MEMORY REQUIRED FOR RHF ITERS=    982670 WORDS.

 DIRECT SCF CALCULATION, SCHWRZ=T   FDIFF=F,  DIRTHR=  0.00E+00 NITDIR=10
 SCHWARZ INEQUALITY OVERHEAD:     62118 INTEGRALS, T=        0.01

                                                                                   NONZERO     BLOCKS
 ITER EX DEM     TOTAL ENERGY        E CHANGE  DENSITY CHANGE     ORB. GRAD      INTEGRALS    SKIPPED
   1  0  0     -563.4962101667  -563.4962101667   0.367677736   0.000000000     1417036376    4448039
          ---------------START SECOND ORDER SCF---------------
   2  1  0     -564.5622741182    -1.0660639515   0.106481062   0.051701816     1403132978    4777935
   3  2  0     -564.6314378701    -0.0691637519   0.048415133   0.029887432     1401854327    4778924
   4  3  0     -564.6505177295    -0.0190798593   0.006887327   0.003022050     1402944422    4767133
   5  4  0     -564.6512217190    -0.0007039895   0.004213668   0.001317331     1403194477    4763548
   6  5  0     -564.6512977441    -0.0000760251   0.001052941   0.000463595     1403270239    4762047
   7  6  0     -564.6513056679    -0.0000079238   0.000545088   0.000262406     1403270865    4762181
   8  7  0     -564.6513074448    -0.0000017769   0.000102842   0.000073774     1403268370    4762212
   9  8  0     -564.6513076541    -0.0000002094   0.000073592   0.000032275     1403270914    4762195
  10  9  0     -564.6513076769    -0.0000000228   0.000036493   0.000012175     1403275113    4762189
  11 10  0     -564.6513076816    -0.0000000047   0.000007307   0.000003656     1403275998    4762184
  12 11  0     -564.6513076821    -0.0000000005   0.000005756   0.000001591     1403276832    4762181
  13 12  0     -564.6513076823    -0.0000000001   0.000002601   0.000000476     1403276350    4762184
  14 13  0     -564.6513076823    -0.0000000000   0.000000967   0.000000135     1403276350    4762184

          -----------------
          DENSITY CONVERGED
          -----------------
     TIME TO FORM FOCK OPERATORS=      88.3 SECONDS (       6.3 SEC/ITER)
     FOCK TIME ON FIRST ITERATION=       6.4, LAST ITERATION=       6.2
     TIME TO SOLVE SCF EQUATIONS=       0.4 SECONDS (       0.0 SEC/ITER)

 FINAL RHF ENERGY IS     -564.6513076823 AFTER  14 ITERATIONS

          ------------
          EIGENVECTORS
          ------------

                      1          2          3          4          5
                  -80.4243   -20.9594   -11.5930   -11.5930   -11.5929
                     A          A          A          A          A   
    1  LA 1  S    0.000003  -0.000001   0.000000   0.000004   0.000005
    2  LA 1  X    0.000000   0.000000  -0.000004  -0.000005   0.000004
    3  LA 1  Y   -0.000001  -0.000002  -0.000006   0.000002  -0.000003
    4  LA 1  Z    0.000006   0.000008  -0.000001   0.000004   0.000003
    5  LA 1 XX    0.000002  -0.000011   0.000003  -0.000004  -0.000003
    6  LA 1 YY    0.000001  -0.000010  -0.000003  -0.000001  -0.000004
    7  LA 1 ZZ   -0.000003   0.000021   0.000000   0.000005   0.000007
    8  LA 1 XY    0.000000  -0.000000   0.000002   0.000002  -0.000002
    9  LA 1 XZ   -0.000000   0.000001   0.000001   0.000001  -0.000000
   10  LA 1 YZ    0.000001  -0.000008  -0.000000  -0.000002  -0.000002
   11  LA 1 XX    0.000002   0.000035  -0.000006   0.000021   0.000021
   12  LA 1 YY    0.000002   0.000030   0.000007   0.000012   0.000022
   13  LA 1 ZZ   -0.000004  -0.000066  -0.000001  -0.000033  -0.000043
   14  LA 1 XY    0.000000   0.000001  -0.000004  -0.000004   0.000005
   15  LA 1 XZ   -0.000000  -0.000004  -0.000002  -0.000005  -0.000000
   16  LA 1 YZ    0.000002   0.000026  -0.000001   0.000014   0.000016
   17  LA 1  S   -0.000008  -0.000029  -0.000001  -0.000094  -0.000119
   18  LA 1  X   -0.000000  -0.000001  -0.000009  -0.000013   0.000007
   19  LA 1  Y    0.000000   0.000007  -0.000015   0.000016   0.000007
   20  LA 1  Z   -0.000000  -0.000030  -0.000003  -0.000040  -0.000054
   21  LA 1  S    0.000004   0.000029   0.000002   0.000140   0.000176
   22  LA 1  X    0.000000   0.000001   0.000022   0.000033  -0.000017
   23  LA 1  Y   -0.000000  -0.000006   0.000036  -0.000045  -0.000023
   24  LA 1  Z    0.000001   0.000028   0.000009   0.000121   0.000162
   25  LA 1  S   -0.000005   0.000013  -0.000000  -0.000003  -0.000004
   26  LA 1  X   -0.000000  -0.000000   0.000005   0.000007  -0.000006
   27  LA 1  Y    0.000003   0.000001   0.000009  -0.000002   0.000006
   28  LA 1  Z   -0.000014  -0.000005   0.000002  -0.000011  -0.000012
   29  LA 1 XX   -0.000002  -0.000013   0.000008  -0.000039  -0.000045
   30  LA 1 YY   -0.000001  -0.000011  -0.000018  -0.000023  -0.000046
   31  LA 1 ZZ    0.000003   0.000024   0.000010   0.000062   0.000091
   32  LA 1 XY   -0.000000  -0.000000   0.000002  -0.000000  -0.000002
   33  LA 1 XZ    0.000000   0.000001   0.000018   0.000028  -0.000014
   34  LA 1 YZ   -0.000001  -0.000009   0.000024  -0.000039  -0.000025
   35  P  2  S    1.000136   0.000072   0.000001   0.000084   0.000106
   36  P  2  S    0.000165   0.000449   0.000008   0.000602   0.000758
   37  P  2  S    0.000181   0.000591   0.000013   0.000936   0.001180
   38  P  2  S   -0.000938  -0.000178  -0.000004  -0.000298  -0.000375
   39  P  2  S   -0.000376  -0.002397   0.000002   0.000075   0.000094
   40  P  2  X   -0.000002  -0.000003   0.000286   0.000379  -0.000293
   41  P  2  Y    0.000015   0.000020   0.000469  -0.000250   0.000128
   42  P  2  Z   -0.000065  -0.000091   0.000097   0.000078   0.000225
   43  P  2  X   -0.000002  -0.000010   0.000756   0.001001  -0.000777
   44  P  2  Y    0.000012   0.000059   0.001242  -0.000657   0.000344
   45  P  2  Z   -0.000054  -0.000264   0.000256   0.000191   0.000576
   46  P  2  X    0.000001   0.000004  -0.000030  -0.000040   0.000030
   47  P  2  Y   -0.000007  -0.000025  -0.000049   0.000028  -0.000010
   48  P  2  Z    0.000033   0.000113  -0.000010  -0.000019  -0.000037
   49  P  2  X   -0.000003   0.000053  -0.000062  -0.000068   0.000075
   50  P  2  Y    0.000018  -0.000333  -0.000099  -0.000015  -0.000111
   51  P  2  Z   -0.000081   0.001476  -0.000015   0.000286   0.000333
   52  P  2 XX   -0.000003  -0.000065   0.000204  -0.000052   0.000110
   53  P  2 YY   -0.000003  -0.000056  -0.000229   0.000138  -0.000046
   54  P  2 ZZ    0.000006   0.000121   0.000025  -0.000087  -0.000063
   55  P  2 XY   -0.000000  -0.000002   0.000121   0.000154  -0.000122
   56  P  2 XZ    0.000000   0.000008   0.000087   0.000123  -0.000107
   57  P  2 YZ   -0.000002  -0.000048   0.000049  -0.000004   0.000055
   58  P  2 XX   -0.000022  -0.000010   0.000265   0.000072   0.000281
   59  P  2 YY   -0.000019  -0.000009  -0.000385   0.000326   0.000040
   60  P  2 ZZ    0.000041   0.000020   0.000120  -0.000398  -0.000321
   61  P  2 XY   -0.000001  -0.000000   0.000124   0.000143  -0.000107
   62  P  2 XZ    0.000003   0.000001   0.000269   0.000346  -0.000318
   63  P  2 YZ   -0.000017  -0.000008   0.000314  -0.000027   0.000272
   64  P  2 XXX   0.000001   0.000010   0.000021   0.000030  -0.000016
   65  P  2 YYY  -0.000006   0.000029   0.000029  -0.000069  -0.000059
   66  P  2 ZZZ  -0.000012  -0.000181  -0.000027  -0.000039  -0.000083
   67  P  2 XXY  -0.000000  -0.000161   0.000014   0.000036   0.000055
   68  P  2 XXZ   0.000010   0.000109   0.000011   0.000043   0.000075
   69  P  2 YYX   0.000000   0.000003   0.000005   0.000007  -0.000002
   70  P  2 YYZ   0.000007   0.000134   0.000026   0.000009   0.000036
   71  P  2 ZZX  -0.000001  -0.000017  -0.000033  -0.000046   0.000024
   72  P  2 ZZY   0.000008   0.000123  -0.000053   0.000056   0.000024
   73  P  2 XYZ   0.000000   0.000012   0.000014   0.000024  -0.000019
   74  P  2 XX    0.000001   0.000022  -0.000004   0.000003   0.000000
   75  P  2 YY    0.000001   0.000019   0.000004  -0.000001   0.000003
   76  P  2 ZZ   -0.000002  -0.000041  -0.000000  -0.000002  -0.000003
   77  P  2 XY    0.000000   0.000001  -0.000003  -0.000003   0.000003
   78  P  2 XZ   -0.000000  -0.000003  -0.000001  -0.000001   0.000001
   79  P  2 YZ    0.000001   0.000016   0.000001   0.000001   0.000001
   80  O  3  S   -0.000000   0.975785   0.000000   0.000028   0.000036
   81  O  3  S   -0.000000  -0.001110   0.000000   0.000041   0.000052
   82  O  3  S    0.000005   0.043105  -0.000000  -0.000012  -0.000015
   83  O  3  S   -0.000061   0.004807   0.000003   0.000137   0.000172
   84  O  3  X    0.000000   0.000021  -0.000004  -0.000006   0.000004
   85  O  3  Y   -0.000000  -0.000127  -0.000007   0.000006   0.000001
   86  O  3  Z    0.000001   0.000564  -0.000002  -0.000011  -0.000016
   87  O  3  X   -0.000001  -0.000020   0.000010   0.000015  -0.000009
   88  O  3  Y    0.000004   0.000119   0.000017  -0.000016  -0.000004
   89  O  3  Z   -0.000017  -0.000531   0.000004   0.000034   0.000047
[...]
            143  C  4 XXY     0.00128     0.07613
            144  C  4 XXZ     0.00083     0.07719
            145  C  4 YYX     0.00084     0.06905
            146  C  4 YYZ     0.00135     0.06649
            147  C  4 ZZX     0.00000     0.06960
            148  C  4 ZZY     0.00000     0.06681
            149  C  4 XYZ     0.00000     0.00300
            150  C  5  S      1.95555     1.55551
            151  C  5  S      0.82733     0.43100
            152  C  5  S      0.16178     0.27786
            153  C  5  S      0.32233     0.14861
            154  C  5  X      0.27193     0.21069
            155  C  5  Y      0.29468     0.22644
            156  C  5  Z      0.29341     0.22563
            157  C  5  X      0.51416     0.26547
            158  C  5  Y      0.53884     0.27956
            159  C  5  Z      0.53805     0.28002
            160  C  5  X      0.13913     0.18393
            161  C  5  Y      0.19296     0.20334
            162  C  5  Z      0.22646     0.20937
            163  C  5 XX      0.00522     0.08561
            164  C  5 YY      0.00524     0.08692
            165  C  5 ZZ      0.00424     0.08568
            166  C  5 XY      0.00421     0.00468
            167  C  5 XZ      0.00338     0.00455
            168  C  5 YZ      0.00000     0.00378
            169  C  5 XX      0.00826     0.09206
            170  C  5 YY      0.01271     0.09067
            171  C  5 ZZ      0.01152     0.08556
            172  C  5 XY      0.01021     0.02662
            173  C  5 XZ      0.00816     0.02503
            174  C  5 YZ      0.00000     0.01548
            175  C  5 XXX     0.00092     0.15911
            176  C  5 YYY     0.00073     0.17165
            177  C  5 ZZZ     0.00081     0.16813
            178  C  5 XXY     0.00126     0.07637
            179  C  5 XXZ     0.00087     0.07832
            180  C  5 YYX     0.00079     0.06889
            181  C  5 YYZ     0.00136     0.06679
            182  C  5 ZZX     0.00000     0.06992
            183  C  5 ZZY     0.00000     0.06668
            184  C  5 XYZ     0.00000     0.00292
            185  C  6  S      1.95555     1.55588
            186  C  6  S      0.82733     0.43301
            187  C  6  S      0.16178     0.27892
            188  C  6  S      0.32233     0.14949
            189  C  6  X      0.30161     0.22913
            190  C  6  Y      0.25946     0.20638
            191  C  6  Z      0.29895     0.22909
            192  C  6  X      0.54549     0.27999
            193  C  6  Y      0.50017     0.26586
            194  C  6  Z      0.54539     0.28014
            195  C  6  X      0.20543     0.20695
            196  C  6  Y      0.11151     0.17186
            197  C  6  Z      0.24160     0.21223
            198  C  6 XX      0.00569     0.08716
            199  C  6 YY      0.00604     0.09038
            200  C  6 ZZ      0.00354     0.08680
            201  C  6 XY      0.00433     0.00319
            202  C  6 XZ      0.00270     0.00456
            203  C  6 YZ      0.00000     0.00257
            204  C  6 XX      0.01057     0.08899
            205  C  6 YY      0.01497     0.10383
            206  C  6 ZZ      0.01014     0.08734
            207  C  6 XY      0.00860     0.02232
            208  C  6 XZ      0.00658     0.01977
            209  C  6 YZ      0.00000     0.01318
            210  C  6 XXX     0.00089     0.16303
            211  C  6 YYY     0.00094     0.16883
            212  C  6 ZZZ     0.00060     0.16658
            213  C  6 XXY     0.00141     0.07040
            214  C  6 XXZ     0.00094     0.07575
            215  C  6 YYX     0.00050     0.07870
            216  C  6 YYZ     0.00145     0.07296
            217  C  6 ZZX     0.00000     0.07427
            218  C  6 ZZY     0.00000     0.06377
            219  C  6 XYZ     0.00000     0.00267
            220  H  7  S      0.25334     0.19541
            221  H  7  S      0.45343     0.24535
            222  H  7  S      0.06339     0.12063
            223  H  7  X      0.00160     0.00206
            224  H  7  Y      0.00748     0.01103
            225  H  7  Z      0.00171     0.00219
            226  H  7  X      0.01046     0.02860
            227  H  7  Y      0.00507     0.04771
            228  H  7  Z      0.00882     0.02972
            229  H  7 XX      0.00032     0.06934
            230  H  7 YY      0.00065     0.11702
            231  H  7 ZZ      0.00100     0.06991
            232  H  7 XY      0.00009     0.00486
            233  H  7 XZ      0.00084     0.00015
            234  H  7 YZ      0.00000     0.00512
            235  H  8  S      0.24834     0.19106
            236  H  8  S      0.45027     0.24067
            237  H  8  S      0.05018     0.11562
            238  H  8  X      0.00161     0.00210
            239  H  8  Y      0.00186     0.00258
            240  H  8  Z      0.00731     0.01056
            241  H  8  X      0.00967     0.02899
            242  H  8  Y      0.00788     0.02908
            243  H  8  Z      0.00626     0.04768
            244  H  8 XX      0.00091     0.06818
            245  H  8 YY      0.00012     0.07064
            246  H  8 ZZ      0.00010     0.11255
            247  H  8 XY      0.00094     0.00021
            248  H  8 XZ      0.00080     0.00491
            249  H  8 YZ      0.00000     0.00541
            250  H  9  S      0.25334     0.18771
            251  H  9  S      0.45340     0.24332
            252  H  9  S      0.06333     0.12098
            253  H  9  X      0.00587     0.00775
            254  H  9  Y      0.00249     0.00354
            255  H  9  Z      0.00243     0.00342
            256  H  9  X      0.00992     0.04407
            257  H  9  Y      0.00712     0.03125
            258  H  9  Z      0.00731     0.03206
            259  H  9 XX      0.00048     0.09983
            260  H  9 YY      0.00090     0.07536
            261  H  9 ZZ      0.00063     0.07468
            262  H  9 XY      0.00065     0.00524
            263  H  9 XZ      0.00025     0.00528
            264  H  9 YZ      0.00000     0.00166
            265  H 10  S      0.25334     0.18703
            266  H 10  S      0.45340     0.24309
            267  H 10  S      0.06332     0.12095
            268  H 10  X      0.00562     0.00742
            269  H 10  Y      0.00246     0.00346
            270  H 10  Z      0.00270     0.00379
            271  H 10  X      0.01033     0.04351
            272  H 10  Y      0.00716     0.03114
            273  H 10  Z      0.00687     0.03282
            274  H 10 XX      0.00053     0.09788
            275  H 10 YY      0.00087     0.07474
            276  H 10 ZZ      0.00061     0.07679
            277  H 10 XY      0.00062     0.00495
            278  H 10 XZ      0.00028     0.00536
            279  H 10 YZ      0.00000     0.00193
            280  H 11  S      0.24833     0.19112
            281  H 11  S      0.45028     0.24063
            282  H 11  S      0.05018     0.11559
            283  H 11  X      0.00164     0.00218
            284  H 11  Y      0.00186     0.00258
            285  H 11  Z      0.00729     0.01050
            286  H 11  X      0.01003     0.02910
            287  H 11  Y      0.00789     0.02908
            288  H 11  Z      0.00589     0.04759
            289  H 11 XX      0.00089     0.06836
            290  H 11 YY      0.00013     0.07067
            291  H 11 ZZ      0.00010     0.11242
            292  H 11 XY      0.00095     0.00022
            293  H 11 XZ      0.00079     0.00492
            294  H 11 YZ      0.00000     0.00539
            295  H 12  S      0.25334     0.19540
            296  H 12  S      0.45341     0.24536
            297  H 12  S      0.06339     0.12062
            298  H 12  X      0.00159     0.00205
            299  H 12  Y      0.00748     0.01103
            300  H 12  Z      0.00172     0.00220
            301  H 12  X      0.01055     0.02869
            302  H 12  Y      0.00511     0.04777
            303  H 12  Z      0.00869     0.02962
            304  H 12 XX      0.00033     0.06936
            305  H 12 YY      0.00065     0.11703
            306  H 12 ZZ      0.00101     0.06988
            307  H 12 XY      0.00009     0.00484
            308  H 12 XZ      0.00083     0.00014
            309  H 12 YZ      0.00000     0.00514
            310  H 13  S      0.25334     0.18728
            311  H 13  S      0.45341     0.24261
            312  H 13  S      0.06337     0.12057
            313  H 13  X      0.00541     0.00691
            314  H 13  Y      0.00261     0.00395
            315  H 13  Z      0.00276     0.00392
            316  H 13  X      0.00462     0.04117
            317  H 13  Y      0.01273     0.03339
            318  H 13  Z      0.00700     0.03262
            319  H 13 XX      0.00052     0.09609
            320  H 13 YY      0.00073     0.07623
            321  H 13 ZZ      0.00072     0.07721
            322  H 13 XY      0.00061     0.00486
            323  H 13 XZ      0.00033     0.00525
            324  H 13 YZ      0.00000     0.00213
            325  H 14  S      0.25334     0.18806
            326  H 14  S      0.45341     0.24290
            327  H 14  S      0.06334     0.12058
            328  H 14  X      0.00565     0.00725
            329  H 14  Y      0.00264     0.00405
            330  H 14  Z      0.00249     0.00354
            331  H 14  X      0.00429     0.04193
            332  H 14  Y      0.01274     0.03354
            333  H 14  Z      0.00733     0.03170
            334  H 14 XX      0.00047     0.09815
            335  H 14 YY      0.00076     0.07693
            336  H 14 ZZ      0.00075     0.07500
            337  H 14 XY      0.00062     0.00517
            338  H 14 XZ      0.00030     0.00518
            339  H 14 YZ      0.00000     0.00185
            340  H 15  S      0.24833     0.19138
            341  H 15  S      0.45028     0.24077
            342  H 15  S      0.05018     0.11564
            343  H 15  X      0.00164     0.00210
            344  H 15  Y      0.00199     0.00306
            345  H 15  Z      0.00716     0.01021
            346  H 15  X      0.00805     0.02815
            347  H 15  Y      0.01144     0.03101
            348  H 15  Z      0.00433     0.04727
            349  H 15 XX      0.00085     0.06760
            350  H 15 YY      0.00019     0.07252
            351  H 15 ZZ      0.00011     0.11176
            352  H 15 XY      0.00077     0.00028
            353  H 15 XZ      0.00094     0.00504
            354  H 15 YZ      0.00000     0.00530

          ----- MULLIKEN ATOMIC OVERLAP POPULATIONS -----
          (OFF-DIAGONAL ELEMENTS NEED TO BE MULTIPLIED BY 2)

             1           2           3           4           5

    1    8.6855687
    2   -0.0032815  13.2212361
    3    0.0818131   0.2800665   8.2797701
    4   -0.0000660   0.3368809  -0.0223467   5.0194789
    5   -0.0000658   0.3368798  -0.0223382  -0.0318938   5.0194960
    6   -0.0000681   0.3368925  -0.0223417  -0.0318749  -0.0318795
    7    0.0002718  -0.0163927   0.0004578   0.3660675  -0.0025455
    8    0.0004605  -0.0119023   0.0013362   0.3542230   0.0000520
    9    0.0002691  -0.0163908   0.0004523   0.3661148   0.0024456
   10    0.0002684  -0.0163954   0.0004512   0.0024455   0.3661130
   11    0.0004604  -0.0118929   0.0013362   0.0000539   0.3542130
   12    0.0002719  -0.0163930   0.0004575  -0.0025467   0.3660745
   13    0.0002712  -0.0163875   0.0004548   0.0024471  -0.0025526
   14    0.0002696  -0.0163916   0.0004524  -0.0025490   0.0024463
   15    0.0004614  -0.0119122   0.0013360   0.0000524   0.0000569

             6           7           8           9          10

    6    5.0194327
    7    0.0024483   0.4879763
    8    0.0000538  -0.0124338   0.4673964
    9   -0.0025498  -0.0182057  -0.0124390   0.4878570
   10   -0.0025438  -0.0000082  -0.0000114  -0.0000756   0.4878444
   11    0.0000490  -0.0001273  -0.0001074  -0.0000112  -0.0124461
   12    0.0024477   0.0007836  -0.0001267  -0.0000084  -0.0181945
   13    0.3660922  -0.0000757  -0.0000118  -0.0000079   0.0007886
   14    0.3661080  -0.0000080  -0.0001265   0.0007898  -0.0000076
   15    0.3542189  -0.0000116  -0.0001120  -0.0001275  -0.0001292

            11          12          13          14          15

   11    0.4674135
   12   -0.0124356   0.4879477
   13   -0.0001250  -0.0000085   0.4879155
   14   -0.0000120  -0.0000757  -0.0181952   0.4878684
   15   -0.0001109  -0.0000111  -0.0124419  -0.0124421   0.4674305

          TOTAL MULLIKEN AND LOWDIN ATOMIC POPULATIONS
       ATOM         MULL.POP.    CHARGE          LOW.POP.     CHARGE
    1 LA            8.766905    2.233095         8.896303    2.103697
    2 P            14.374616    0.625384        14.274694    0.725306
    3 O             8.581357   -0.581357         8.286474   -0.286474
    4 C             6.356487   -0.356487         6.031738   -0.031738
    5 C             6.356502   -0.356502         6.032842   -0.032842
    6 C             6.356485   -0.356485         6.045988   -0.045988
    7 H             0.808197    0.191803         0.949114    0.050886
    8 H             0.786251    0.213749         0.930251    0.069749
    9 H             0.808113    0.191887         0.936130    0.063870
   10 H             0.808099    0.191901         0.934853    0.065147
   11 H             0.786258    0.213742         0.930361    0.069639
   12 H             0.808183    0.191817         0.949120    0.050880
   13 H             0.808163    0.191837         0.934192    0.065808
   14 H             0.808127    0.191873         0.935846    0.064154
   15 H             0.786258    0.213742         0.932096    0.067904

          MULLIKEN SPHERICAL HARMONIC POPULATIONS
       ATOM           S       P       D      F      G      H      I    TOTAL
    1 LA            2.02    6.58    0.16   0.00   0.00   0.00   0.00    8.77
    2 P             5.33    8.40    0.57   0.07   0.00   0.00   0.00   14.37
    3 O             3.36    5.18    0.04   0.00   0.00   0.00   0.00    8.58
    4 C             3.27    3.01    0.07   0.01   0.00   0.00   0.00    6.36
    5 C             3.27    3.01    0.07   0.01   0.00   0.00   0.00    6.36
    6 C             3.27    3.01    0.07   0.01   0.00   0.00   0.00    6.36
    7 H             0.77    0.04    0.00   0.00   0.00   0.00   0.00    0.81
    8 H             0.75    0.03    0.00   0.00   0.00   0.00   0.00    0.79
    9 H             0.77    0.04    0.00   0.00   0.00   0.00   0.00    0.81
   10 H             0.77    0.04    0.00   0.00   0.00   0.00   0.00    0.81
   11 H             0.75    0.03    0.00   0.00   0.00   0.00   0.00    0.79
   12 H             0.77    0.04    0.00   0.00   0.00   0.00   0.00    0.81
   13 H             0.77    0.04    0.00   0.00   0.00   0.00   0.00    0.81
   14 H             0.77    0.04    0.00   0.00   0.00   0.00   0.00    0.81
   15 H             0.75    0.03    0.00   0.00   0.00   0.00   0.00    0.79

          -------------------------------
          BOND ORDER AND VALENCE ANALYSIS     BOND ORDER THRESHOLD=0.050
          -------------------------------

                   BOND                       BOND                       BOND
  ATOM PAIR DIST  ORDER      ATOM PAIR DIST  ORDER      ATOM PAIR DIST  ORDER
    1   3  2.650  0.365        2   3  1.767  0.848        2   4  1.775  1.001
    2   5  1.775  1.001        2   6  1.775  1.001        4   7  1.089  0.880
    4   8  1.094  0.859        4   9  1.089  0.880        5  10  1.089  0.880
    5  11  1.094  0.859        5  12  1.089  0.880        6  13  1.089  0.880
    6  14  1.089  0.880        6  15  1.094  0.859

                       TOTAL       BONDED        FREE
      ATOM            VALENCE     VALENCE     VALENCE
    1 LA               -0.998       0.413      -1.411
    2 P                 4.651       4.226       0.424
    3 O                 2.350       1.257       1.093
    4 C                 3.929       3.635       0.294
    5 C                 3.929       3.635       0.294
    6 C                 3.929       3.635       0.294
    7 H                 0.979       0.928       0.051
    8 H                 0.970       0.918       0.051
    9 H                 0.979       0.928       0.051
   10 H                 0.979       0.928       0.051
   11 H                 0.970       0.918       0.051
   12 H                 0.979       0.928       0.051
   13 H                 0.979       0.928       0.051
   14 H                 0.979       0.928       0.051
   15 H                 0.970       0.918       0.051

          ---------------------
          ELECTROSTATIC MOMENTS
          ---------------------

 POINT   1           X           Y           Z (BOHR)    CHARGE
                -0.214732    1.424413   -4.445893        3.00 (A.U.)
         DX          DY          DZ         /D/  (DEBYE)
    -0.058773    0.371549   -1.656483    1.698658
 ...... END OF PROPERTY EVALUATION ......
 CPU     0: STEP CPU TIME=     0.20 TOTAL CPU TIME=      932.2 (   15.5 MIN)
 TOTAL WALL CLOCK TIME=      945.9 SECONDS, CPU UTILIZATION IS  98.55%
  $VIB   
          IVIB=   0 IATOM=   0 ICOORD=   0 E=     -565.5771147488
  1.029122895E-07 9.287775344E-07 2.046099810E-07 6.219289022E-06-9.209075238E-07
 -2.799461091E-05-3.494368572E-06 1.211500902E-05-3.078109104E-05-1.917591999E-06
 -2.331264617E-05 7.154307368E-05 1.770395730E-06-8.505872989E-06 5.889673180E-05
 -6.569947707E-07-7.054297369E-06 4.710525933E-05-3.892593521E-05-1.330466277E-05
 -4.211805186E-05 7.123807831E-05-3.484710916E-05 6.745891432E-06-1.735240323E-06
  4.661098573E-05-2.036470760E-05-1.548248141E-06 3.355668228E-05-1.281047605E-05
 -6.594240895E-05-3.574893074E-05 1.168506888E-05 3.241076053E-05-1.251772103E-05
 -3.519825282E-05-3.406560173E-05-1.506156277E-05-2.917721580E-05 2.964932673E-05
 -1.089606311E-05-3.095657850E-05 6.895627090E-06 6.895831906E-05 3.322034948E-05
 -5.877301339E-02 3.715489511E-01-1.656483441E+00
 ......END OF GEOMETRY SEARCH......
 CPU     0: STEP CPU TIME=     0.00 TOTAL CPU TIME=      932.2 (   15.5 MIN)
 TOTAL WALL CLOCK TIME=      946.0 SECONDS, CPU UTILIZATION IS  98.55%
               2991967  WORDS OF DYNAMIC MEMORY USED
 EXECUTION OF GAMESS TERMINATED NORMALLY Thu Jun  9 00:09:43 2016
 DDI: 44487344 bytes (42.4 MB / 5 MWords) used by master data server.

 ----------------------------------------
 CPU timing information for all processes
 ========================================
 0: 930.400 + 1.983 = 932.384
 1: 929.979 + 1.727 = 931.707
 2: 930.464 + 1.746 = 932.211
 3: 930.624 + 1.671 = 932.296
 4: 930.775 + 1.670 = 932.446
 5: 930.986 + 1.766 = 932.753
 6: 931.943 + 1.729 = 933.673
 7: 931.415 + 1.747 = 933.163
 8: 930.921 + 1.766 = 932.688
 9: 931.782 + 1.708 = 933.491
 10: 931.592 + 1.814 = 933.407
 11: 931.160 + 1.735 = 932.896
 12: 931.815 + 1.764 = 933.580
 13: 931.997 + 1.768 = 933.766
 14: 931.848 + 1.683 = 933.532
 15: 931.349 + 1.484 = 932.834
 16: 0.12 + 0.161 = 0.174
 17: 0.09 + 0.162 = 0.172
 18: 0.10 + 0.157 = 0.168
 19: 0.10 + 0.154 = 0.165
 20: 0.15 + 0.161 = 0.177
 21: 0.18 + 0.131 = 0.150
 22: 0.06 + 0.136 = 0.143
 23: 0.17 + 0.151 = 0.169
 24: 0.18 + 0.155 = 0.174
 25: 0.19 + 0.160 = 0.180
 26: 0.14 + 0.156 = 0.171
 27: 0.15 + 0.153 = 0.169
 28: 0.14 + 0.161 = 0.176
 29: 0.14 + 0.150 = 0.165
 30: 0.10 + 0.149 = 0.160
 31: 0.06 + 0.150 = 0.157
 ----------------------------------------
unset echo
----- accounting info -----
Files used on the master node node216 were:
-rw-r--r-- 1 fzahari quantum     1975 Jun  8 23:53 /local/scratch/fzahari/196569.share/bnd_var-265.F05
-rw-r--r-- 1 fzahari quantum 17178000 Jun  9 00:09 /local/scratch/fzahari/196569.share/bnd_var-265.F10
-rw-r--r-- 1 fzahari quantum        8 Jun  8 23:53 /local/scratch/fzahari/196569.share/bnd_var-265.nodes.mpd
ls: No match.
ls: No match.
ls: No match.
Thu Jun  9 00:09:45 CDT 2016
14899.862u 34.820s 15:50.34 1571.5%	0+0k 104+162976io 0pf+0w
