----- GAMESS execution script 'rungms' -----
This job is running on host node222
under operating system Linux at Thu Jun 9 00:21:25 CDT 2016
PBS has assigned the following compute nodes to this run:
node222
Available scratch disk space (Kbyte units) at beginning of the job is
Filesystem           1K-blocks      Used Available Use% Mounted on
/dev/sda7            2670838024    213260 2534953980   1% /local
GAMESS temporary binary files will be written to /local/scratch/fzahari/196572.share
GAMESS supplementary output files will be written to /work1/quantum/fzahari/scr
Copying input file bnd_var-280.inp to your run's scratch directory...
cp bnd_var-280.inp /local/scratch/fzahari/196572.share/bnd_var-280.F05
unset echo
setenv I_MPI_WAIT_MODE enable
setenv I_MPI_PIN disable
setenv I_MPI_DEBUG 0
setenv I_MPI_STATS 0
setenv I_MPI_FABRICS dapl
setenv I_MPI_DAT_LIBRARY libdat2.so
unset echo
MPI kickoff will run GAMESS on 16 cores in 1 nodes.
The binary to be executed is /home/mschmidt/gamess/gamess.132.x
MPI will run 16 compute processes and 16 data servers,
    placing 16 of each process type onto each node.
The scratch disk space on each node is /local/scratch/fzahari/196572.share, with free space
Filesystem           1K-blocks      Used Available Use% Mounted on
/dev/sda7            2670838024    213284 2534953956   1% /local
setenv I_MPI_HYDRA_ENV all
setenv I_MPI_PERHOST 32
unset echo
mpiexec.hydra -f /local/scratch/fzahari/196572.share/bnd_var-280.processes.mpd -n 32 /home/mschmidt/gamess/gamess.132.x
          ******************************************************
          *         GAMESS VERSION =  5 DEC 2014 (R1)          *
          *             FROM IOWA STATE UNIVERSITY             *
          * M.W.SCHMIDT, K.K.BALDRIDGE, J.A.BOATZ, S.T.ELBERT, *
          *   M.S.GORDON, J.H.JENSEN, S.KOSEKI, N.MATSUNAGA,   *
          *          K.A.NGUYEN, S.J.SU, T.L.WINDUS,           *
          *       TOGETHER WITH M.DUPUIS, J.A.MONTGOMERY       *
          *         J.COMPUT.CHEM.  14, 1347-1363(1993)        *
          **************** 64 BIT INTEL VERSION ****************

  SINCE 1993, STUDENTS AND POSTDOCS WORKING AT IOWA STATE UNIVERSITY
  AND ALSO IN THEIR VARIOUS JOBS AFTER LEAVING ISU HAVE MADE IMPORTANT
  CONTRIBUTIONS TO THE CODE:
     IVANA ADAMOVIC, CHRISTINE AIKENS, YURI ALEXEEV, POOJA ARORA,
     ANDREY ASADCHEV, ROB BELL, PRADIPTA BANDYOPADHYAY, JONATHAN BENTZ,
     BRETT BODE, KURT BRORSEN, CALEB CARLIN, GALINA CHABAN, WEI CHEN,
     CHEOL HO CHOI, PAUL DAY, ALBERT DEFUSCO, NUWAN DESILVA, TIM DUDLEY,
     DMITRI FEDOROV, GRAHAM FLETCHER, MARK FREITAG, KURT GLAESEMANN,
     DAN KEMP, GRANT MERRILL, NORIYUKI MINEZAWA, JONATHAN MULLIN,
     TAKESHI NAGATA, SEAN NEDD, HEATHER NETZLOFF, BOSILJKA NJEGIC, RYAN OLSON,
     MIKE PAK, SPENCER PRUITT, LUKE ROSKOP, JIM SHOEMAKER, LYUDMILA SLIPCHENKO,
     TONY SMITH, SAROM SOK, JIE SONG, TETSUYA TAKETSUGU, SIMON WEBB,
     PENG XU, SOOHAENG YOO, FEDERICO ZAHARIEV

  ADDITIONAL CODE HAS BEEN PROVIDED BY COLLABORATORS IN OTHER GROUPS:
     IOWA STATE UNIVERSITY:
          JOE IVANIC, AARON WEST, LAIMUTIS BYTAUTAS, KLAUS RUEDENBERG
     UNIVERSITY OF TOKYO: KIMIHIKO HIRAO, TAKAHITO NAKAJIMA,
          TAKAO TSUNEDA, MUNEAKI KAMIYA, SUSUMU YANAGISAWA,
          KIYOSHI YAGI, MAHITO CHIBA, SEIKEN TOKURA, NAOAKI KAWAKAMI
     UNIVERSITY OF AARHUS: FRANK JENSEN
     UNIVERSITY OF IOWA: VISVALDAS KAIRYS, HUI LI
     NATIONAL INST. OF STANDARDS AND TECHNOLOGY: WALT STEVENS, DAVID GARMER
     UNIVERSITY OF PISA: BENEDETTA MENNUCCI, JACOPO TOMASI
     UNIVERSITY OF MEMPHIS: HENRY KURTZ, PRAKASHAN KORAMBATH
     UNIVERSITY OF ALBERTA: TOBY ZENG, MARIUSZ KLOBUKOWSKI
     UNIVERSITY OF NEW ENGLAND: MARK SPACKMAN
     MIE UNIVERSITY: HIROAKI UMEDA
     NAT. INST. OF ADVANCED INDUSTRIAL SCIENCE AND TECHNOLOGY: KAZUO KITAURA
     MICHIGAN STATE UNIVERSITY:
          KAROL KOWALSKI, MARTA WLOCH, JEFFREY GOUR, JESSE LUTZ,
          WEI LI, PIOTR PIECUCH
     UNIVERSITY OF SILESIA: MONIKA MUSIAL, STANISLAW KUCHARSKI
     FACULTES UNIVERSITAIRES NOTRE-DAME DE LA PAIX:
          OLIVIER QUINET, BENOIT CHAMPAGNE
     UNIVERSITY OF CALIFORNIA - SANTA BARBARA: BERNARD KIRTMAN
     INSTITUTE FOR MOLECULAR SCIENCE:
          KAZUYA ISHIMURA, MICHIO KATOUDA, AND SHIGERU NAGASE
     UNIVERSITY OF NOTRE DAME: ANNA POMOGAEVA, DAN CHIPMAN
     KYUSHU UNIVERSITY:
          HARUYUKI NAKANO,
          FENG LONG GU, JACEK KORCHOWIEC, MARCIN MAKOWSKI, AND YURIKO AOKI,
          HIROTOSHI MORI AND EISAKU MIYOSHI
     PENNSYLVANIA STATE UNIVERSITY:
          TZVETELIN IORDANOV, CHET SWALINA, JONATHAN SKONE,
          SHARON HAMMES-SCHIFFER
     WASEDA UNIVERSITY:
          MASATO KOBAYASHI, TOMOKO AKAMA, TSUGUKI TOUMA,
          TAKESHI YOSHIKAWA, YASUHIRO IKABATA, HIROMI NAKAI
     NANJING UNIVERSITY: SHUHUA LI
     UNIVERSITY OF NEBRASKA:
          PEIFENG SU, DEJUN SI, NANDUN THELLAMUREGE, YALI WANG, HUI LI
     UNIVERSITY OF ZURICH: ROBERTO PEVERATI, KIM BALDRIDGE
     N. COPERNICUS UNIVERSITY AND JACKSON STATE UNIVERSITY:
          MARIA BARYSZ
     UNIVERSITY OF COPENHAGEN: CASPER STEINMANN
     TOKYO INSTITUTE OF TECHNOLOGY: HIROYA NAKATA
     NAGOYA UNIVERSITY: YOSHIO NISHIMOTO, STEPHAN IRLE


 PARALLEL VERSION RUNNING ON       16 PROCESSORS IN        1 NODES.

 EXECUTION OF GAMESS BEGUN Thu Jun  9 00:21:26 2016

            ECHO OF THE FIRST FEW INPUT CARDS -
 INPUT CARD> $ZMAT DLC=.T. AUTO=.T. $END                                                    
 INPUT CARD> $ZMAT IFZMAT(1)=1, 1 , 3  FVALUE(1)= 2.8 $END                                  
 INPUT CARD> $CONTRL COORD=UNIQUE NZVAR= 39 $END                                            
 INPUT CARD> $CONTRL ICHARG=+3 MULT=1                                                       
 INPUT CARD>         MPLEVL=2                                                               
 INPUT CARD>         SCFTYP=RHF                                                             
 INPUT CARD>         MAXIT=200 ISPHER=1 ICUT=11                                             
 INPUT CARD>         RUNTYP=OPTIMIZE                                                        
 INPUT CARD>         PP=READ                                                                
 INPUT CARD>         $END                                                                   
 INPUT CARD> $SCF    DIRSCF=.T. FDIFF=.F. $END                                              
 INPUT CARD> $TRANS  DIRTRF=.T. $END                                                        
 INPUT CARD> $SYSTEM MWORDS=300 MEMDDI=300 $END                                             
 INPUT CARD> $GUESS  GUESS=HUCKEL $END                                                      
 INPUT CARD> $BASIS  BASNAM(1)=METAL,                                                       
 INPUT CARD>                   LIGP,                                                        
 INPUT CARD>                   LIGO,                                                        
 INPUT CARD>                   LIGC,                                                        
 INPUT CARD>                   LIGC,                                                        
 INPUT CARD>                   LIGC,                                                        
 INPUT CARD>                   LIGH,                                                        
 INPUT CARD>                   LIGH,                                                        
 INPUT CARD>                   LIGH,                                                        
 INPUT CARD>                   LIGH,                                                        
 INPUT CARD>                   LIGH,                                                        
 INPUT CARD>                   LIGH,                                                        
 INPUT CARD>                   LIGH,                                                        
 INPUT CARD>                   LIGH,                                                        
 INPUT CARD>                   LIGH                                                         
 INPUT CARD> $END                                                                           
 INPUT CARD> $DATA                                                                          
 INPUT CARD>                                                                                
 INPUT CARD> C1                                                                             
 INPUT CARD> La 57.0 -0.1739353441 1.134168269 -4.0490164368                                
 INPUT CARD> P 15.0 -0.0160069935569 0.137665752857 0.394547906023                          
 INPUT CARD> O 8.0 -0.0778195165569 0.521906672757 -1.31846750198                           
 INPUT CARD> C 6.0 -1.46549888966 0.850121516657 1.13022478142                              
 INPUT CARD> C 6.0 1.47651996224 0.860410386157 1.02695909362                               
 INPUT CARD> C 6.0 -0.00507701415689 -1.63261429504 0.521310659223                          
 INPUT CARD> H 1.0 -1.46724755646 1.93295458766 1.01685338342                               
 INPUT CARD> H 1.0 -1.42876629336 0.613918739057 2.19811730532                              
 INPUT CARD> H 1.0 -2.36989347846 0.412416382657 0.711074266423                             
 INPUT CARD> H 1.0 2.35258845084 0.428443283957 0.546128811823                              
 INPUT CARD> H 1.0 1.51570576154 0.623848515057 2.09470211752                               
 INPUT CARD> H 1.0 1.46328282104 1.94316406096 0.914100090923                               
 INPUT CARD> H 1.0 0.877113485543 -2.05180564024 0.0402433537228                            
 INPUT CARD> H 1.0 -0.916458515857 -2.05866078304 0.105111454523                            
 INPUT CARD> H 1.0 0.0344331745431 -1.87396111954 1.58788081312                             
 INPUT CARD> $END                                                                           
 INPUT CARD>!                                                                               
  300000000 WORDS OF MEMORY AVAILABLE

     BASIS OPTIONS
     -------------
     GBASIS=             IGAUSS=       0      POLAR=NONE    
     NDFUNC=       0     NFFUNC=       0     DIFFSP=       F
     NPFUNC=       0      DIFFS=       F     BASNAM=METAL   

 USING BASNAM FOR ATOM CUSTOMIZED BASIS CONSTRUCTION
     ----------------
     ATOM  BASIS NAME
     ----------------
       1   METAL   
       2   LIGP    
       3   LIGO    
       4   LIGC    
       5   LIGC    
       6   LIGC    
       7   LIGH    
       8   LIGH    
       9   LIGH    
      10   LIGH    
      11   LIGH    
      12   LIGH    
      13   LIGH    
      14   LIGH    
      15   LIGH    
 NOW LOCATING ALL   15 BASIS SETS IN YOUR INPUT FILE...
 FOUND BASIS SET  $METAL 
  SBKJC                        
                               
  $END                         
 FOUND BASIS SET  $LIGP  
  CCT                          
                               
  $END                         
 FOUND BASIS SET  $LIGO  
  CCT                          
                               
  $END                         
 FOUND BASIS SET  $LIGC  
  CCT                          
                               
  $END                         
 FOUND BASIS SET  $LIGH  
  CCT                          
                               
  $END                         
    5 UNIQUE ATOM CUSTOMIZED BASIS SETS WERE FOUND.

     SEARCHING FOR $MCP
     $MCP GROUP NOT FOUND


     RUN TITLE
     ---------
                                                                                 

 THE POINT GROUP OF THE MOLECULE IS C1      
 THE ORDER OF THE PRINCIPAL AXIS IS     0

 ATOM      ATOMIC                      COORDINATES (BOHR)
           CHARGE         X                   Y                   Z
 LA         57.0    -0.3286901399        2.1432672524       -7.6515315853
 P          15.0    -0.0302488317        0.2601505508        0.7455874314
 O           8.0    -0.1470575628        0.9862606027       -2.4915423025
 C           6.0    -2.7693913368        1.6064967227        2.1358151414
 C           6.0     2.7902181440        1.6259398668        1.9406712875
 C           6.0    -0.0095941656       -3.0851936613        0.9851343004
 H           1.0    -2.7726958379        3.6527545174        1.9215742644
 H           1.0    -2.6999767949        1.1601381955        4.1538393959
 H           1.0    -4.4784492944        0.7793539561        1.3437355205
 H           1.0     4.4457475340        0.8096404080        1.0320338083
 H           1.0     2.8642685673        1.1789027513        3.9584130280
 H           1.0     2.7652035743        3.6720476244        1.7273986972
 H           1.0     1.6575041478       -3.8773504401        0.0760489114
 H           1.0    -1.7318554741       -3.8903047816        0.1986318472
 H           1.0     0.0650692648       -3.5412730276        3.0006596380

          INTERNUCLEAR DISTANCES (ANGS.)
          ------------------------------

                1 LA         2 P          3 O          4 C          5 C     

   1 LA      0.0000000    4.5566679    2.8000000 *  5.3454054    5.3445742  
   2 P       4.5566679    0.0000000    1.7566683 *  1.7747790 *  1.7748072 *
   3 O       2.8000000 *  1.7566683 *  0.0000000    2.8336325 *  2.8340046 *
   4 C       5.3454054    1.7747790 *  2.8336325 *  0.0000000    2.9438486 *
   5 C       5.3445742    1.7748072 *  2.8340046 *  2.9438486 *  0.0000000  
   6 C       5.3452305    1.7748464 *  2.8340846 *  2.9440764 *  2.9438040 *
   7 H       5.2890219    2.3909047 *  3.0619096    1.0887532 *  3.1330848  
   8 H       6.3931166    2.3399932 *  3.7682744    1.0943196 *  3.1421422  
   9 H       5.2916558    2.3909116 *  3.0634345    1.0886701 *  3.8852771  
  10 H       5.2911936    2.3911865 *  3.0646921    3.8854564    1.0887099 *
  11 H       6.3922290    2.3394534 *  3.7682147    3.1414960    1.0943364 *
  12 H       5.2884292    2.3912459 *  3.0625687    3.1335625    1.0887001 *
  13 H       5.2893458    2.3910209 *  3.0630030    3.8854953    3.1327142  
  14 H       5.2917177    2.3913253 *  3.0641835    3.1326214    3.8855020  
  15 H       6.3927201    2.3394936 *  3.7682415    3.1432263    3.1418203  

                6 C          7 H          8 H          9 H         10 H     

   1 LA      5.3452305    5.2890219    6.3931166    5.2916558    5.2911936  
   2 P       1.7748464 *  2.3909047 *  2.3399932 *  2.3909116 *  2.3911865 *
   3 O       2.8340846 *  3.0619096    3.7682744    3.0634345    3.0646921  
   4 C       2.9440764 *  1.0887532 *  1.0943196 *  1.0886701 *  3.8854564  
   5 C       2.9438040 *  3.1330848    3.1421422    3.8852771    1.0887099 *
   6 C       0.0000000    3.8854584    3.1441187    3.1321746    3.1316387  
   7 H       3.8854584    0.0000000    1.7710790 *  1.7945214 *  4.1323459  
   8 H       3.1441187    1.7710790 *  0.0000000    1.7713330 *  4.1306308  
   9 H       3.1321746    1.7945214 *  1.7713330 *  0.0000000    4.7253888  
  10 H       3.1316387    4.1323459    4.1306308    4.7253888    0.0000000  
  11 H       3.1432412    3.4312574    2.9463043 *  4.1300134    1.7710548 *
  12 H       3.8854285    2.9323490 *  3.4321337    4.1325112    1.7946159 *
  13 H       1.0887641 *  4.7252629    4.1327458    4.1310360    2.9299456 *
  14 H       1.0887395 *  4.1312995    3.4330473    2.9301683 *  4.1312045  
  15 H       1.0942492 *  4.1320364    2.9500657 *  3.4317777    3.4293086  

               11 H         12 H         13 H         14 H         15 H     

   1 LA      6.3922290    5.2884292    5.2893458    5.2917177    6.3927201  
   2 P       2.3394534 *  2.3912459 *  2.3910209 *  2.3913253 *  2.3394936 *
   3 O       3.7682147    3.0625687    3.0630030    3.0641835    3.7682415  
   4 C       3.1414960    3.1335625    3.8854953    3.1326214    3.1432263  
   5 C       1.0943364 *  1.0887001 *  3.1327142    3.8855020    3.1418203  
   6 C       3.1432412    3.8854285    1.0887641 *  1.0887395 *  1.0942492 *
   7 H       3.4312574    2.9323490 *  4.7252629    4.1312995    4.1320364  
   8 H       2.9463043 *  3.4321337    4.1327458    3.4330473    2.9500657 *
   9 H       4.1300134    4.1325112    4.1310360    2.9301683 *  3.4317777  
  10 H       1.7710548 *  1.7946159 *  2.9299456 *  4.1312045    3.4293086  
  11 H       0.0000000    1.7712038 *  3.4333258    4.1315554    2.9478957 *
  12 H       1.7712038 *  0.0000000    4.1312229    4.7256993    4.1311060  
  13 H       3.4333258    4.1312229    0.0000000    1.7947578 *  1.7711354 *
  14 H       4.1315554    4.7256993    1.7947578 *  0.0000000    1.7711335 *
  15 H       2.9478957 *  4.1311060    1.7711354 *  1.7711335 *  0.0000000  

  * ... LESS THAN  3.000


     ATOMIC BASIS SET
     ----------------
 THE CONTRACTED PRIMITIVE FUNCTIONS HAVE BEEN UNNORMALIZED
 THE CONTRACTED BASIS FUNCTIONS ARE NOW NORMALIZED TO UNITY

  SHELL TYPE  PRIMITIVE        EXPONENT          CONTRACTION COEFFICIENT(S)

 LA        

      1   L       1             9.1730000   -0.054833023521   -0.009797991527
      1   L       2             3.1200000    0.676604290237    0.231261800020
      1   L       3             2.1040000   -1.034429443730   -0.601214480110
      1   L       4             1.3200000   -0.518907222591    0.195188831214
      1   L       5             0.4960000    1.631603699894    1.076136069429

      2   D       6             1.2380000   -0.053797021791
      2   D       7             0.6061000    0.380144153981
      2   D       8             0.2518000    0.720349291785

      3   D       9             0.0978700    1.000000000000

      4   L      10             0.6182000   -0.107095028128   -0.051868986063
      4   L      11             0.0454600    1.033448271434    1.008107729120

      5   L      12             0.0177500    1.000000000000    1.000000000000

      6   L      13             0.2004000    1.000000000000    1.000000000000

      7   D      14             0.0353600    1.000000000000

 P         

      8   S      15        312400.0000000    0.000057689641
      8   S      16         46800.0000000    0.000448246591
      8   S      17         10650.0000000    0.002349131061
      8   S      18          3018.0000000    0.009781571802
      8   S      19           986.8000000    0.034142936511
      8   S      20           357.4000000    0.100192955985
      8   S      21           139.6000000    0.234346168617
      8   S      22            57.6300000    0.382391849918
      8   S      23            24.6000000    0.318052941833
      8   S      24            10.1200000    0.070770999093
      8   S      25             4.2830000   -0.001817789630
      8   S      26             1.8050000    0.002161561737
      8   S      27             0.2782000    0.000432249354

      9   S      28        312400.0000000   -0.000016380204
      9   S      29         46800.0000000   -0.000127233535
      9   S      30         10650.0000000   -0.000668625166
      9   S      31          3018.0000000   -0.002795303744
      9   S      32           986.8000000   -0.009928227435
      9   S      33           357.4000000   -0.030244566456
      9   S      34           139.6000000   -0.077884705328
      9   S      35            57.6300000   -0.156724571545
      9   S      36            24.6000000   -0.198042753651
      9   S      37            10.1200000    0.037971251521
      9   S      38             4.2830000    0.552751544147
      9   S      39             1.8050000    0.542611452452
      9   S      40             0.2782000   -0.009675942874

     10   S      41        312400.0000000    0.000006865735
     10   S      42         46800.0000000    0.000053281983
     10   S      43         10650.0000000    0.000280421002
     10   S      44          3018.0000000    0.001170789768
     10   S      45           986.8000000    0.004173591138
     10   S      46           357.4000000    0.012720496749
     10   S      47           139.6000000    0.033152766352
     10   S      48            57.6300000    0.067671246836
     10   S      49            24.6000000    0.089831018862
     10   S      50            10.1200000   -0.020305232360
     10   S      51             4.2830000   -0.313280408979
     10   S      52             1.8050000   -0.563687905527
     10   S      53             0.2782000    1.117494073734

     11   S      54             0.6158000    1.000000000000

     12   S      55             0.1055000    1.000000000000

     13   P      56           504.9000000    0.002433660431
     13   P      57           119.4000000    0.019305559477
     13   P      58            37.9600000    0.088473106893
     13   P      59            13.9500000    0.254701981099
     13   P      60             5.4570000    0.440199242653
     13   P      61             2.1770000    0.383632006272
     13   P      62             0.2877000   -0.003946337074

     14   P      63           504.9000000   -0.000954298933
     14   P      64           119.4000000   -0.007664025747
     14   P      65            37.9600000   -0.035465925259
     14   P      66            13.9500000   -0.106164716437
     14   P      67             5.4570000   -0.187210586037
     14   P      68             2.1770000   -0.181495819791
     14   P      69             0.2877000    0.991672644618

     15   P      70             0.8010000    1.000000000000

     16   P      71             0.0971400    1.000000000000

     17   D      72             0.6480000    1.000000000000

     18   D      73             0.2180000    1.000000000000

     19   F      74             0.4520000    1.000000000000

     20   D      75             3.1200000    1.000000000000

 O         

     21   S      76         15330.0000000    0.000520198307
     21   S      77          2299.0000000    0.004023344781
     21   S      78           522.4000000    0.020729083329
     21   S      79           147.3000000    0.081082327080
     21   S      80            47.5500000    0.236226352118
     21   S      81            16.7600000    0.443518209420
     21   S      82             6.2070000    0.358670588689
     21   S      83             0.6882000   -0.008349797237

     22   S      84         15330.0000000   -0.000197236012
     22   S      85          2299.0000000   -0.001535010700
     22   S      86           522.4000000   -0.007951183914
     22   S      87           147.3000000   -0.032113452892
     22   S      88            47.5500000   -0.100269643049
     22   S      89            16.7600000   -0.234047111838
     22   S      90             6.2070000   -0.301410927756
     22   S      91             0.6882000    1.034919649508

     23   S      92             1.7520000    1.000000000000

     24   S      93             0.2384000    1.000000000000

     25   P      94            34.4600000    0.041163489568
     25   P      95             7.7490000    0.257762835858
     25   P      96             2.2800000    0.802419274427

     26   P      97             0.7156000    1.000000000000

     27   P      98             0.2140000    1.000000000000

     28   D      99             2.3140000    1.000000000000

     29   D     100             0.6450000    1.000000000000

     30   F     101             1.4280000    1.000000000000

 C         

     31   S     102          8236.0000000    0.000542430189
     31   S     103          1235.0000000    0.004196427901
     31   S     104           280.8000000    0.021540914108
     31   S     105            79.2700000    0.083614949614
     31   S     106            25.5900000    0.239871618922
     31   S     107             8.9970000    0.443751820060
     31   S     108             3.3190000    0.353579696469
     31   S     109             0.3643000   -0.009176366076

     32   S     110          8236.0000000   -0.000196392234
     32   S     111          1235.0000000   -0.001525950274
     32   S     112           280.8000000   -0.007890449028
     32   S     113            79.2700000   -0.031514870532
     32   S     114            25.5900000   -0.096910008320
     32   S     115             8.9970000   -0.220541526288
     32   S     116             3.3190000   -0.296069112937
     32   S     117             0.3643000    1.040503432950

     33   S     118             0.9059000    1.000000000000

     34   S     119             0.1285000    1.000000000000

     35   P     120            18.7100000    0.039426387165
     35   P     121             4.1330000    0.244088984924
     35   P     122             1.2000000    0.815492008943

     36   P     123             0.3827000    1.000000000000

     37   P     124             0.1209000    1.000000000000

     38   D     125             1.0970000    1.000000000000

     39   D     126             0.3180000    1.000000000000

     40   F     127             0.7610000    1.000000000000

 C         

     41   S     128          8236.0000000    0.000542430189
     41   S     129          1235.0000000    0.004196427901
     41   S     130           280.8000000    0.021540914108
     41   S     131            79.2700000    0.083614949614
     41   S     132            25.5900000    0.239871618922
     41   S     133             8.9970000    0.443751820060
     41   S     134             3.3190000    0.353579696469
     41   S     135             0.3643000   -0.009176366076

     42   S     136          8236.0000000   -0.000196392234
     42   S     137          1235.0000000   -0.001525950274
     42   S     138           280.8000000   -0.007890449028
     42   S     139            79.2700000   -0.031514870532
     42   S     140            25.5900000   -0.096910008320
     42   S     141             8.9970000   -0.220541526288
     42   S     142             3.3190000   -0.296069112937
     42   S     143             0.3643000    1.040503432950

     43   S     144             0.9059000    1.000000000000

     44   S     145             0.1285000    1.000000000000

     45   P     146            18.7100000    0.039426387165
     45   P     147             4.1330000    0.244088984924
     45   P     148             1.2000000    0.815492008943

     46   P     149             0.3827000    1.000000000000

     47   P     150             0.1209000    1.000000000000

     48   D     151             1.0970000    1.000000000000

     49   D     152             0.3180000    1.000000000000

     50   F     153             0.7610000    1.000000000000

 C         

     51   S     154          8236.0000000    0.000542430189
     51   S     155          1235.0000000    0.004196427901
     51   S     156           280.8000000    0.021540914108
     51   S     157            79.2700000    0.083614949614
     51   S     158            25.5900000    0.239871618922
     51   S     159             8.9970000    0.443751820060
     51   S     160             3.3190000    0.353579696469
     51   S     161             0.3643000   -0.009176366076

     52   S     162          8236.0000000   -0.000196392234
     52   S     163          1235.0000000   -0.001525950274
     52   S     164           280.8000000   -0.007890449028
     52   S     165            79.2700000   -0.031514870532
     52   S     166            25.5900000   -0.096910008320
     52   S     167             8.9970000   -0.220541526288
     52   S     168             3.3190000   -0.296069112937
     52   S     169             0.3643000    1.040503432950

     53   S     170             0.9059000    1.000000000000

     54   S     171             0.1285000    1.000000000000

     55   P     172            18.7100000    0.039426387165
     55   P     173             4.1330000    0.244088984924
     55   P     174             1.2000000    0.815492008943

     56   P     175             0.3827000    1.000000000000

     57   P     176             0.1209000    1.000000000000

     58   D     177             1.0970000    1.000000000000

     59   D     178             0.3180000    1.000000000000

     60   F     179             0.7610000    1.000000000000

 H         

     61   S     180            33.8700000    0.025494863235
     61   S     181             5.0950000    0.190362765893
     61   S     182             1.1590000    0.852162022245

     62   S     183             0.3258000    1.000000000000

     63   S     184             0.1027000    1.000000000000

     64   P     185             1.4070000    1.000000000000

     65   P     186             0.3880000    1.000000000000

     66   D     187             1.0570000    1.000000000000

 H         

     67   S     188            33.8700000    0.025494863235
     67   S     189             5.0950000    0.190362765893
     67   S     190             1.1590000    0.852162022245

     68   S     191             0.3258000    1.000000000000

     69   S     192             0.1027000    1.000000000000

     70   P     193             1.4070000    1.000000000000

     71   P     194             0.3880000    1.000000000000

     72   D     195             1.0570000    1.000000000000

 H         

     73   S     196            33.8700000    0.025494863235
     73   S     197             5.0950000    0.190362765893
     73   S     198             1.1590000    0.852162022245

     74   S     199             0.3258000    1.000000000000

     75   S     200             0.1027000    1.000000000000

     76   P     201             1.4070000    1.000000000000

     77   P     202             0.3880000    1.000000000000

     78   D     203             1.0570000    1.000000000000

 H         

     79   S     204            33.8700000    0.025494863235
     79   S     205             5.0950000    0.190362765893
     79   S     206             1.1590000    0.852162022245

     80   S     207             0.3258000    1.000000000000

     81   S     208             0.1027000    1.000000000000

     82   P     209             1.4070000    1.000000000000

     83   P     210             0.3880000    1.000000000000

     84   D     211             1.0570000    1.000000000000

 H         

     85   S     212            33.8700000    0.025494863235
     85   S     213             5.0950000    0.190362765893
     85   S     214             1.1590000    0.852162022245

     86   S     215             0.3258000    1.000000000000

     87   S     216             0.1027000    1.000000000000

     88   P     217             1.4070000    1.000000000000

     89   P     218             0.3880000    1.000000000000

     90   D     219             1.0570000    1.000000000000

 H         

     91   S     220            33.8700000    0.025494863235
     91   S     221             5.0950000    0.190362765893
     91   S     222             1.1590000    0.852162022245

     92   S     223             0.3258000    1.000000000000

     93   S     224             0.1027000    1.000000000000

     94   P     225             1.4070000    1.000000000000

     95   P     226             0.3880000    1.000000000000

     96   D     227             1.0570000    1.000000000000

 H         

     97   S     228            33.8700000    0.025494863235
     97   S     229             5.0950000    0.190362765893
     97   S     230             1.1590000    0.852162022245

     98   S     231             0.3258000    1.000000000000

     99   S     232             0.1027000    1.000000000000

    100   P     233             1.4070000    1.000000000000

    101   P     234             0.3880000    1.000000000000

    102   D     235             1.0570000    1.000000000000

 H         

    103   S     236            33.8700000    0.025494863235
    103   S     237             5.0950000    0.190362765893
    103   S     238             1.1590000    0.852162022245

    104   S     239             0.3258000    1.000000000000

    105   S     240             0.1027000    1.000000000000

    106   P     241             1.4070000    1.000000000000

    107   P     242             0.3880000    1.000000000000

    108   D     243             1.0570000    1.000000000000

 H         

    109   S     244            33.8700000    0.025494863235
    109   S     245             5.0950000    0.190362765893
    109   S     246             1.1590000    0.852162022245

    110   S     247             0.3258000    1.000000000000

    111   S     248             0.1027000    1.000000000000

    112   P     249             1.4070000    1.000000000000

    113   P     250             0.3880000    1.000000000000

    114   D     251             1.0570000    1.000000000000

 TOTAL NUMBER OF BASIS SET SHELLS             =  114
 NUMBER OF CARTESIAN GAUSSIAN BASIS FUNCTIONS =  354
 NOTE: THIS RUN WILL RESTRICT THE MO VARIATION SPACE TO SPHERICAL HARMONICS.
 THE NUMBER OF ORBITALS KEPT IN THE VARIATIONAL SPACE WILL BE PRINTED LATER.
 NUMBER OF ELECTRONS                          =  104
 CHARGE OF MOLECULE                           =    3
 SPIN MULTIPLICITY                            =    1
 NUMBER OF OCCUPIED ORBITALS (ALPHA)          =   52
 NUMBER OF OCCUPIED ORBITALS (BETA )          =   52
 TOTAL NUMBER OF ATOMS                        =   15
 THE NUCLEAR REPULSION ENERGY IS      589.9322672200
 NOTE THIS RUN IS USING CORE POTENTIALS, AND THE NUMBER OF ELECTRONS,
 OCCUPIED ORBITALS, AND NUCLEAR REPULSION ENERGY WILL BE ADJUSTED BELOW
 AFTER REMOVAL OF THE CORE CHARGES.

     $CONTRL OPTIONS
     ---------------
 SCFTYP=RHF          RUNTYP=OPTIMIZE     EXETYP=RUN     
 MPLEVL=       2     CITYP =NONE         CCTYP =NONE         VBTYP =NONE    
 DFTTYP=NONE         TDDFT =NONE    
 MULT  =       1     ICHARG=       3     NZVAR =      39     COORD =UNIQUE  
 PP    =READ         RELWFN=NONE         LOCAL =NONE         NUMGRD=       F
 ISPHER=       1     NOSYM =       0     MAXIT =     200     UNITS =ANGS    
 PLTORB=       F     MOLPLT=       F     AIMPAC=       F     FRIEND=        
 NPRINT=       7     IREST =       0     GEOM  =INPUT   
 NORMF =       0     NORMP =       0     ITOL  =      20     ICUT  =      11
 INTTYP=BEST         GRDTYP=BEST         QMTTOL= 1.0E-06

     $SYSTEM OPTIONS
     ---------------
  REPLICATED MEMORY=   300000000 WORDS (ON EVERY NODE).
 DISTRIBUTED MEMDDI=         300 MILLION WORDS IN AGGREGATE,
 MEMDDI DISTRIBUTED OVER  16 PROCESSORS IS    18750000 WORDS/PROCESSOR.
 TOTAL MEMORY REQUESTED ON EACH PROCESSOR=   318750000 WORDS.
 TIMLIM=      525600.00 MINUTES, OR     365.0 DAYS.
 PARALL= T  BALTYP=  DLB     KDIAG=    0  COREFL= F
 MXSEQ2=     300 MXSEQ3=     150  mem10=         0

          --------------
          ECP POTENTIALS
          --------------

 PARAMETERS FOR "LA-ECP  " ON ATOM    1 WITH ZCORE  46 AND LMAX  4 ARE
 FOR L= 4      COEFF    N           ZETA
    1       -2.85665    1        1.42345
 FOR L= 0      COEFF    N           ZETA
    1        8.85347    0       22.29739
    2      -68.41778    2        1.64320
    3      110.12463    2        1.85122
 FOR L= 1      COEFF    N           ZETA
    1        2.98675    0        1.77635
    2      -35.51815    2        3.98941
    3       53.65423    2        2.47524
 FOR L= 2      COEFF    N           ZETA
    1        1.67298    0        1.52169
    2       18.46625    2        1.52182
 FOR L= 3      COEFF    N           ZETA
    1       -4.64430    1        2.67762
    2      -14.43101    1       10.06608

 THE ECP RUN REMOVES   46 CORE ELECTRONS, AND THE SAME NUMBER OF PROTONS.
 NUMBER OF ELECTRONS KEPT IN THE CALCULATION IS =   58
 NUMBER OF OCCUPIED ORBITALS (ALPHA) KEPT IS    =   29
 NUMBER OF OCCUPIED ORBITALS (BETA ) KEPT IS    =   29
 THE ADJUSTED NUCLEAR REPULSION ENERGY=      319.2459599036
          ECP ANGULAR INTS.........     0.04 SECONDS

          ----------------
          PROPERTIES INPUT
          ----------------

     MOMENTS            FIELD           POTENTIAL          DENSITY
 IEMOM =       1   IEFLD =       0   IEPOT =       0   IEDEN =       0
 WHERE =COMASS     WHERE =NUCLEI     WHERE =NUCLEI     WHERE =NUCLEI  
 OUTPUT=BOTH       OUTPUT=BOTH       OUTPUT=BOTH       OUTPUT=BOTH    
 IEMINT=       0   IEFINT=       0                     IEDINT=       0
                                                       MORB  =       0
          EXTRAPOLATION IN EFFECT
          SOSCF IN EFFECT
 ORBITAL PRINTING OPTION: NPREO=     1   354     2     1

     -------------------------------
     INTEGRAL TRANSFORMATION OPTIONS
     -------------------------------
     NWORD  =            0
     CUTOFF = 1.0E-09     MPTRAN =       0
     DIRTRF =       T     AOINTS =DUP     

          ----------------------
          INTEGRAL INPUT OPTIONS
          ----------------------
 NOPK  =       1 NORDER=       0 SCHWRZ=       T

          -----------------------
          MP2 CONTROL INFORMATION
          -----------------------
          NACORE =       13  NBCORE =       13
          LMOMP2 =        F  AOINTS = DUP     
          METHOD =        2  NWORD  =               0
          MP2PRP =        F  OSPT   = NONE    
          CUTOFF = 1.00E-09  CPHFBS = BASISAO 
          CODE   = DDI     

          NUMBER OF CORE -A-  ORBITALS =    13
          NUMBER OF CORE -B-  ORBITALS =    13
          NUMBER OF OCC. -A-  ORBITALS =    29
          NUMBER OF OCC. -B-  ORBITALS =    29
          NUMBER OF MOLECULAR ORBITALS =   354
          NUMBER OF   BASIS  FUNCTIONS =   354

 
 
 -----------------------------------------------
  STATISTICS ON AUTOMATIC COORDINATE GENERATION 
 -----------------------------------------------
  NUMBER OF USER SPECIFIED BONDS                              0
  NUMBER OF BONDS                                            14
  NUMBER OF ANGLES                                           25
  NUMBER OF TORSIONS                                         30
  NUMBER OF EXTRA COORD.                                      0
  NUMBER OF EXTRA COORD. FOR CONSTRAINTS                      0
  NUMBER OF CONSTRAINED COORD.                                1
 
  TOTAL NUMBER OF PRIMITIVES                                 69
 -----------------------------------------------

   --- ENCODED Z MATRIX ---
 COORD  TYPE   I   J   K   L   M   N
    1      1    1   3
    2      1    2   4
    3      1    2   3
    4      1    2   6
    5      1    2   5
    6      1    4   8
    7      1    4   7
    8      1    4   9
    9      1    5  12
   10      1    5  11
   11      1    5  10
   12      1    6  15
   13      1    6  14
   14      1    6  13
   15      2    1   3   2
   16      2    2   5  11
   17      2    2   4   8
   18      2    2   6  13
   19      2    2   6  14
   20      2    2   4   9
   21      2    2   5  12
   22      2    2   5  10
   23      2    2   4   7
   24      2    2   6  15
   25      2    3   2   4
   26      2    3   2   5
   27      2    3   2   6
   28      2    4   2   6
   29      2    4   2   5
   30      2    5   2   6
   31      2    7   4   9
   32      2    7   4   8
   33      2    8   4   9
   34      2   10   5  11
   35      2   10   5  12
   36      2   11   5  12
   37      2   13   6  14
   38      2   13   6  15
   39      2   14   6  15
   40      3    1   3   2   5
   41      3    1   3   2   4
   42      3    1   3   2   6
   43      3    3   2   4   8
   44      3    3   2   6  15
   45      3    3   2   6  14
   46      3    3   2   4   7
   47      3    3   2   5  10
   48      3    3   2   6  13
   49      3    3   2   5  11
   50      3    3   2   5  12
   51      3    3   2   4   9
   52      3    4   2   6  15
   53      3    4   2   6  14
   54      3    4   2   5  10
   55      3    4   2   6  13
   56      3    4   2   5  12
   57      3    4   2   5  11
   58      3    5   2   6  15
   59      3    5   2   6  14
   60      3    5   2   4   7
   61      3    5   2   6  13
   62      3    5   2   4   9
   63      3    5   2   4   8
   64      3    6   2   4   7
   65      3    6   2   5  10
   66      3    6   2   5  11
   67      3    6   2   5  12
   68      3    6   2   4   9
   69      3    6   2   4   8

          INDEP./SYM. INTERNAL COORDINATES
          --------------------------------
 CRD  1=   1.0000 (  1)
 CRD  2=   0.1220 ( 20)  0.1184 ( 22)  0.1259 ( 24)  0.1664 ( 25)  0.2233 ( 26)
          -0.3897 ( 27)  0.2750 ( 28) -0.4800 ( 29)  0.2050 ( 30)  0.1701 ( 40)
          -0.1871 ( 41) -0.1440 ( 46)  0.1372 ( 50) -0.1135 ( 51)  0.1206 ( 52)
           0.1612 ( 53) -0.1377 ( 58) -0.1682 ( 61) -0.1287 ( 65) -0.1566 ( 66)
           0.1081 ( 68)  0.1462 ( 69)
 CRD  3=  -0.2444 (  2)  0.2217 (  5)  0.3560 ( 15)  0.1953 ( 18) -0.1860 ( 19)
          -0.1321 ( 20)  0.1553 ( 22) -0.3621 ( 28)  0.3991 ( 30)  0.1540 ( 40)
           0.1147 ( 41) -0.2687 ( 42)  0.1407 ( 44) -0.1152 ( 57) -0.1207 ( 63)
           0.1241 ( 64)  0.1347 ( 65)  0.1229 ( 67)  0.1372 ( 68)
 CRD  4=  -0.1641 (  2)  0.3845 (  4) -0.2205 (  5)  0.1320 ( 18)  0.1603 ( 19)
          -0.2229 ( 21) -0.2158 ( 23) -0.1031 ( 25) -0.1384 ( 26)  0.2414 ( 27)
           0.1009 ( 28) -0.1760 ( 29) -0.1204 ( 37)  0.1572 ( 40) -0.1738 ( 41)
           0.2456 ( 43)  0.1951 ( 46) -0.1508 ( 47) -0.2228 ( 49) -0.1821 ( 50)
           0.1718 ( 51)  0.1516 ( 54)  0.1203 ( 56) -0.1284 ( 60) -0.1518 ( 62)
          -0.1114 ( 68)
 CRD  5=  -0.3965 (  2) -0.3965 (  4) -0.3965 (  5) -0.2736 ( 16) -0.2736 ( 17)
          -0.2736 ( 24)  0.1192 ( 32)  0.1193 ( 33)  0.1192 ( 34)  0.1191 ( 36)
           0.1191 ( 38)  0.1192 ( 39) -0.1211 ( 54)  0.1211 ( 55) -0.1211 ( 59)
           0.1211 ( 62) -0.1211 ( 64)  0.1211 ( 67)
 CRD  6=  -0.2467 (  2) -0.3433 (  3) -0.2465 (  4) -0.2459 (  5)  0.2310 ( 16)
           0.2314 ( 17) -0.2133 ( 18) -0.2126 ( 19) -0.2127 ( 20) -0.2132 ( 21)
          -0.2121 ( 22) -0.2138 ( 23)  0.2310 ( 24)  0.1638 ( 31)  0.1635 ( 35)
           0.1637 ( 37)  0.1289 ( 54) -0.1289 ( 55)  0.1288 ( 59) -0.1288 ( 62)
           0.1289 ( 64) -0.1287 ( 67)
 CRD  7=  -0.3881 (  2)  0.3545 (  5)  0.1087 ( 13) -0.1071 ( 14) -0.1762 ( 15)
           0.1645 ( 16) -0.1791 ( 17) -0.3576 ( 18)  0.3754 ( 19)  0.2892 ( 21)
          -0.1259 ( 22) -0.2485 ( 23)  0.1884 ( 32) -0.1950 ( 36)  0.1213 ( 38)
          -0.1437 ( 39)
 CRD  8=  -0.1411 (  2)  0.3243 (  4) -0.1836 (  5) -0.1947 ( 16) -0.1469 ( 17)
          -0.3562 ( 20)  0.3400 ( 21) -0.3224 ( 22)  0.3675 ( 23)  0.3432 ( 24)
           0.1898 ( 33)  0.1983 ( 34) -0.1554 ( 38) -0.1335 ( 39)
 CRD  9=  -0.1061 (  2) -0.3054 ( 15) -0.4068 ( 16)  0.4477 ( 17)  0.1141 ( 18)
          -0.2958 ( 20)  0.1848 ( 21)  0.2848 ( 22) -0.2211 ( 23)  0.2041 ( 31)
          -0.1856 ( 35) -0.1127 ( 53) -0.1026 ( 55)  0.1122 ( 56) -0.1124 ( 59)
           0.1016 ( 60) -0.1023 ( 61)  0.1092 ( 67)
 CRD 10=  -0.3703 ( 18)  0.3708 ( 19) -0.3714 ( 20) -0.3698 ( 21)  0.3711 ( 22)
           0.3703 ( 23) -0.1315 ( 32)  0.1312 ( 33) -0.1307 ( 34)  0.1314 ( 36)
           0.1311 ( 38) -0.1311 ( 39)
 CRD 11=   0.1002 ( 11)  0.1410 ( 12) -0.2938 ( 16) -0.2187 ( 17) -0.2815 ( 18)
          -0.2458 ( 19)  0.2998 ( 20)  0.3209 ( 22)  0.5118 ( 24)  0.1155 ( 32)
          -0.1334 ( 35)  0.1234 ( 36)  0.2324 ( 37) -0.1073 ( 39)
 CRD 12=   0.7678 (  3)  0.1065 (  6)  0.1052 ( 10)  0.1057 ( 12)  0.2239 ( 16)
           0.2270 ( 17) -0.1104 ( 18) -0.1074 ( 19) -0.1087 ( 20) -0.1082 ( 21)
          -0.1088 ( 22) -0.1104 ( 23)  0.2252 ( 24)  0.1160 ( 31)  0.1150 ( 35)
           0.1154 ( 37)
 CRD 13=   0.1589 (  2) -0.1440 (  5)  0.1336 (  6) -0.1220 ( 10)  0.3582 ( 15)
          -0.2666 ( 16)  0.2920 ( 17) -0.2695 ( 18)  0.2804 ( 19)  0.2063 ( 21)
          -0.1098 ( 22) -0.1704 ( 23)  0.2046 ( 25) -0.1860 ( 26) -0.1310 ( 28)
           0.1448 ( 30) -0.1687 ( 33)  0.1731 ( 34)  0.1170 ( 38)  0.1042 ( 52)
           0.1284 ( 53) -0.1035 ( 54)  0.1278 ( 55) -0.1095 ( 56)  0.1218 ( 59)
           0.1212 ( 61)
 CRD 14=   0.2089 ( 43)  0.2088 ( 44)  0.1810 ( 45)  0.1812 ( 46)  0.1808 ( 47)
           0.1810 ( 48)  0.2086 ( 49)  0.1808 ( 50)  0.1813 ( 51)  0.2088 ( 52)
           0.1811 ( 53)  0.1809 ( 54)  0.1811 ( 55)  0.1809 ( 56)  0.2087 ( 57)
           0.2088 ( 58)  0.1810 ( 59)  0.1811 ( 60)  0.1810 ( 61)  0.1811 ( 62)
           0.2088 ( 63)  0.1812 ( 64)  0.1809 ( 65)  0.2087 ( 66)  0.1808 ( 67)
           0.1812 ( 68)  0.2088 ( 69)
 CRD 15=   0.1038 (  7)  0.1302 (  9) -0.1952 ( 13) -0.1915 ( 14) -0.1035 ( 38)
          -0.1096 ( 39) -0.2657 ( 43) -0.2448 ( 46)  0.2428 ( 47)  0.2414 ( 49)
           0.2182 ( 50) -0.2630 ( 51)  0.1738 ( 54)  0.1492 ( 56)  0.1723 ( 57)
          -0.1720 ( 60) -0.1902 ( 62) -0.1929 ( 63) -0.1857 ( 64)  0.1923 ( 65)
           0.1908 ( 66)  0.1677 ( 67) -0.2040 ( 68) -0.2066 ( 69)
 CRD 16=   0.3948 (  6)  0.3470 (  7)  0.3084 (  8) -0.3170 (  9) -0.3451 ( 10)
          -0.2579 ( 11)  0.1071 ( 16) -0.1222 ( 17) -0.1761 ( 20)  0.1160 ( 21)
           0.1642 ( 22) -0.1437 ( 23)  0.1832 ( 31)  0.1213 ( 32)  0.1399 ( 33)
          -0.1281 ( 34) -0.1606 ( 35) -0.1007 ( 36)
 CRD 17=   0.1729 (  6)  0.1826 (  8)  0.1538 (  9)  0.2589 ( 10)  0.2442 ( 11)
          -0.4314 ( 12) -0.3238 ( 13) -0.3360 ( 14)  0.1617 ( 18)  0.1707 ( 19)
          -0.1311 ( 21) -0.1019 ( 23)  0.1231 ( 24)  0.1167 ( 35) -0.1942 ( 37)
          -0.1292 ( 38) -0.1342 ( 39) -0.1014 ( 54)  0.1060 ( 60)  0.1107 ( 62)
           0.1046 ( 63)  0.1028 ( 68)
 CRD 18=  -0.1007 (  2) -0.1008 (  4) -0.1007 (  5) -0.2692 (  6) -0.3024 (  7)
          -0.3023 (  8) -0.3026 (  9) -0.2691 ( 10) -0.3024 ( 11) -0.2695 ( 12)
          -0.3028 ( 13) -0.3027 ( 14)  0.1121 ( 16)  0.1121 ( 17)  0.1014 ( 18)
           0.1015 ( 19)  0.1013 ( 20)  0.1013 ( 21)  0.1014 ( 22)  0.1012 ( 23)
           0.1122 ( 24) -0.1067 ( 31) -0.1049 ( 32) -0.1050 ( 33) -0.1049 ( 34)
          -0.1069 ( 35) -0.1049 ( 36) -0.1070 ( 37) -0.1049 ( 38) -0.1050 ( 39)
 CRD 19=  -0.1472 (  2)  0.1334 (  5) -0.1671 (  7) -0.2732 (  8)  0.1280 (  9)
           0.2711 ( 11) -0.1044 ( 13)  0.1457 ( 14) -0.1815 ( 15) -0.1098 ( 43)
           0.2572 ( 44)  0.2427 ( 45) -0.1045 ( 46) -0.1384 ( 47)  0.2428 ( 48)
          -0.1475 ( 49) -0.1397 ( 50) -0.1030 ( 51)  0.2138 ( 52)  0.1993 ( 53)
           0.1994 ( 55) -0.1074 ( 57)  0.2172 ( 58)  0.2026 ( 59)  0.2027 ( 61)
          -0.1046 ( 64) -0.1308 ( 65) -0.1398 ( 66) -0.1321 ( 67) -0.1031 ( 68)
          -0.1099 ( 69)
 CRD 20=   0.1950 (  6) -0.2672 (  8)  0.2756 ( 10) -0.2885 ( 11) -0.4806 ( 12)
           0.2126 ( 13)  0.2514 ( 14)  0.1483 ( 32) -0.1399 ( 35)  0.1599 ( 36)
           0.2438 ( 37) -0.1156 ( 38) -0.1369 ( 39) -0.1337 ( 45)  0.1302 ( 48)
          -0.1400 ( 53)  0.1238 ( 55) -0.1266 ( 59)  0.1372 ( 61)
 CRD 21=  -0.4077 (  6)  0.2856 (  7) -0.3073 (  9)  0.3682 ( 10) -0.2681 ( 13)
           0.2269 ( 14)  0.2104 ( 31) -0.1594 ( 33)  0.1699 ( 34) -0.1899 ( 35)
           0.1409 ( 38) -0.1171 ( 39)  0.1198 ( 44) -0.1024 ( 46)  0.1120 ( 47)
           0.1198 ( 51)  0.1231 ( 52)  0.1064 ( 54)  0.1223 ( 58) -0.1080 ( 60)
           0.1142 ( 62)  0.1140 ( 65)  0.1231 ( 68)
 CRD 22=  -0.3845 (  6)  0.1857 (  7)  0.1660 (  8)  0.1606 (  9) -0.3812 ( 10)
           0.1876 ( 11) -0.3767 ( 12)  0.1814 ( 13)  0.1624 ( 14)  0.1955 ( 31)
          -0.1036 ( 33)  0.1937 ( 35) -0.1048 ( 36)  0.1915 ( 37) -0.1014 ( 38)
          -0.1015 ( 45) -0.1036 ( 46) -0.1022 ( 47)  0.1049 ( 48)  0.1067 ( 50)
           0.1072 ( 51) -0.1174 ( 54)  0.1203 ( 55) -0.1169 ( 59)  0.1224 ( 62)
          -0.1188 ( 64)  0.1219 ( 67)
 CRD 23=  -0.3135 (  7)  0.3284 (  8)  0.3224 (  9) -0.3127 ( 11) -0.3142 ( 13)
           0.3253 ( 14) -0.1765 ( 32)  0.1680 ( 33) -0.1731 ( 34)  0.1678 ( 36)
           0.1684 ( 38) -0.1746 ( 39)  0.1256 ( 43)  0.1254 ( 44)  0.1242 ( 49)
           0.1261 ( 52)  0.1238 ( 57)  0.1249 ( 58)  0.1260 ( 63)  0.1248 ( 66)
           0.1250 ( 69)
 CRD 24=  -0.4064 (  7)  0.3166 (  8) -0.3899 (  9)  0.1210 ( 10)  0.2637 ( 11)
          -0.2045 ( 12)  0.1453 ( 13) -0.1749 ( 32)  0.2280 ( 33)  0.2196 ( 34)
          -0.1444 ( 36)  0.1182 ( 37)  0.1166 ( 43)  0.1280 ( 47) -0.1057 ( 49)
          -0.1264 ( 51)  0.1408 ( 54) -0.1396 ( 62)  0.1035 ( 63)  0.1351 ( 65)
          -0.1356 ( 68)  0.1075 ( 69)
 CRD 25=   0.2456 (  6) -0.2362 (  8) -0.1215 (  9) -0.2197 ( 10)  0.2836 ( 11)
          -0.3402 ( 13)  0.3600 ( 14) -0.1485 ( 31)  0.1578 ( 32)  0.1329 ( 35)
          -0.1855 ( 36)  0.2082 ( 38) -0.2224 ( 39) -0.1365 ( 45)  0.1301 ( 46)
          -0.1207 ( 48)  0.1428 ( 50) -0.1521 ( 53) -0.1364 ( 55)  0.1446 ( 56)
          -0.1538 ( 59)  0.1285 ( 60) -0.1380 ( 61)  0.1455 ( 64)  0.1600 ( 67)
 CRD 26=  -0.1155 (  2)  0.2704 (  4) -0.1550 (  5) -0.2385 (  7) -0.2617 (  9)
           0.1291 ( 12)  0.2572 ( 13)  0.2322 ( 14)  0.1574 ( 18)  0.1807 ( 19)
          -0.2103 ( 21) -0.1972 ( 23) -0.1162 ( 27) -0.1094 ( 28)  0.1909 ( 29)
           0.1558 ( 32)  0.1252 ( 35)  0.1616 ( 36) -0.2188 ( 37) -0.1192 ( 39)
          -0.1343 ( 40)  0.1489 ( 41) -0.1375 ( 43)  0.1249 ( 49) -0.1458 ( 54)
          -0.1235 ( 56)  0.1297 ( 60)  0.1463 ( 62)  0.1025 ( 68)
 CRD 27=   0.4667 (  3) -0.2684 (  6) -0.2679 ( 10) -0.2681 ( 12) -0.1524 ( 16)
          -0.1528 ( 17) -0.1526 ( 24)  0.1599 ( 32)  0.1605 ( 33)  0.1599 ( 34)
           0.1596 ( 36)  0.1596 ( 38)  0.1603 ( 39) -0.1010 ( 52)  0.1758 ( 54)
          -0.1756 ( 55)  0.1008 ( 57)  0.1008 ( 58)  0.1759 ( 59) -0.1758 ( 62)
          -0.1007 ( 63)  0.1756 ( 64) -0.1011 ( 66) -0.1758 ( 67)  0.1010 ( 69)
 CRD 28=   0.1304 (  6)  0.1625 (  7)  0.2605 (  8) -0.1262 (  9) -0.1189 ( 10)
          -0.2578 ( 11) -0.1346 ( 14) -0.2066 ( 15) -0.1447 ( 16)  0.1591 ( 17)
           0.2163 ( 20) -0.1366 ( 21) -0.2079 ( 22)  0.1631 ( 23) -0.1670 ( 25)
           0.1512 ( 26) -0.2280 ( 31) -0.1180 ( 32) -0.1944 ( 33)  0.1932 ( 34)
           0.2068 ( 35)  0.1043 ( 38) -0.1243 ( 42) -0.1101 ( 43)  0.2579 ( 44)
           0.1838 ( 45) -0.1153 ( 47)  0.1854 ( 48) -0.1478 ( 49)
 CRD 29=  -0.3201 (  2)  0.1840 (  3) -0.3202 (  4) -0.3197 (  5)  0.1796 (  7)
           0.1793 (  8)  0.1796 (  9)  0.1792 ( 11)  0.1794 ( 13)  0.1796 ( 14)
           0.1222 ( 16)  0.1223 ( 17)  0.1570 ( 18)  0.1569 ( 19)  0.1569 ( 20)
           0.1568 ( 21)  0.1568 ( 22)  0.1569 ( 23)  0.1224 ( 24) -0.2242 ( 31)
          -0.1057 ( 32) -0.1055 ( 33) -0.1052 ( 34) -0.2241 ( 35) -0.1055 ( 36)
          -0.2243 ( 37) -0.1056 ( 38) -0.1055 ( 39)
 CRD 30=  -0.2335 (  2)  0.5470 (  4) -0.3138 (  5)  0.1552 (  8)  0.1117 ( 10)
           0.1698 ( 11) -0.1950 ( 12) -0.1471 ( 13) -0.1635 ( 14)  0.1097 ( 16)
          -0.1887 ( 18) -0.1851 ( 19)  0.1248 ( 22) -0.1913 ( 24) -0.1528 ( 33)
          -0.1756 ( 34)  0.1726 ( 37)  0.2051 ( 38)  0.1926 ( 39)
 CRD 31=  -0.1876 (  3) -0.1767 (  6) -0.1765 ( 10) -0.1766 ( 12)  0.1279 ( 16)
           0.1278 ( 17)  0.1278 ( 24)  0.1001 ( 26)  0.1000 ( 27) -0.1360 ( 31)
          -0.1359 ( 35) -0.1359 ( 37)  0.1286 ( 45)  0.1280 ( 46)  0.1283 ( 47)
          -0.1278 ( 48) -0.1282 ( 50) -0.1285 ( 51)  0.1325 ( 52)  0.2612 ( 53)
          -0.2610 ( 56) -0.1332 ( 57) -0.1332 ( 58)  0.2609 ( 60) -0.2609 ( 61)
           0.1332 ( 63)  0.2612 ( 65)  0.1326 ( 66) -0.2612 ( 68) -0.1324 ( 69)
 CRD 32=  -0.4622 (  2)  0.4194 (  5)  0.1578 (  6)  0.1538 (  7) -0.1745 (  9)
          -0.1431 ( 10) -0.1947 ( 13)  0.1807 ( 14)  0.1218 ( 15) -0.1043 ( 16)
           0.1151 ( 17)  0.1139 ( 20) -0.1091 ( 21) -0.1023 ( 22)  0.1190 ( 23)
           0.1012 ( 25) -0.2001 ( 32)  0.2082 ( 36) -0.1302 ( 38)  0.1560 ( 39)
           0.1027 ( 43) -0.2407 ( 44)  0.1379 ( 49) -0.1038 ( 52) -0.1019 ( 58)
 CRD 33=   0.2305 (  7) -0.2309 (  8) -0.2311 (  9)  0.2315 ( 11)  0.2313 ( 13)
          -0.2308 ( 14) -0.1771 ( 32)  0.1768 ( 33) -0.1772 ( 34)  0.1776 ( 36)
           0.1774 ( 38) -0.1771 ( 39)  0.1514 ( 43)  0.1515 ( 44) -0.1131 ( 45)
          -0.1134 ( 46) -0.1132 ( 47) -0.1136 ( 48)  0.1517 ( 49) -0.1137 ( 50)
          -0.1130 ( 51)  0.1516 ( 52) -0.1130 ( 53) -0.1131 ( 54) -0.1135 ( 55)
          -0.1136 ( 56)  0.1518 ( 57)  0.1515 ( 58) -0.1131 ( 59) -0.1135 ( 60)
          -0.1136 ( 61) -0.1131 ( 62)  0.1513 ( 63) -0.1135 ( 64) -0.1131 ( 65)
           0.1517 ( 66) -0.1136 ( 67) -0.1131 ( 68)  0.1513 ( 69)
 CRD 34=   0.1280 (  6)  0.1181 (  7) -0.2311 (  8)  0.1570 ( 10) -0.2304 ( 11)
          -0.2842 ( 12)  0.1121 ( 13)  0.1387 ( 14)  0.1077 ( 20)  0.1071 ( 22)
           0.1383 ( 29) -0.1868 ( 32)  0.1128 ( 35) -0.1889 ( 36) -0.2042 ( 37)
           0.1095 ( 38)  0.1298 ( 39)  0.1075 ( 43)  0.1787 ( 45) -0.1750 ( 46)
          -0.1644 ( 48)  0.1855 ( 50)  0.1412 ( 53) -0.2018 ( 55)  0.1655 ( 56)
          -0.1188 ( 57)  0.2157 ( 59) -0.1591 ( 60) -0.1273 ( 61)  0.1234 ( 63)
          -0.1920 ( 64)  0.2069 ( 67)
 CRD 35=  -0.2880 (  6)  0.1937 (  7) -0.1981 (  9)  0.2675 ( 10) -0.1533 ( 13)
           0.1345 ( 14)  0.1004 ( 17)  0.1070 ( 30) -0.2084 ( 31)  0.1706 ( 33)
          -0.1724 ( 34)  0.1934 ( 35) -0.1187 ( 38)  0.1011 ( 39)  0.1312 ( 46)
          -0.2148 ( 47)  0.1085 ( 48)  0.1090 ( 50) -0.2174 ( 51) -0.2477 ( 54)
           0.1210 ( 55)  0.1174 ( 61) -0.2508 ( 62)  0.1554 ( 64) -0.1941 ( 65)
           0.1297 ( 67) -0.1932 ( 68)
 CRD 36=   0.1420 (  4)  0.2430 (  7) -0.1464 (  8)  0.2411 (  9) -0.1141 ( 10)
          -0.1119 ( 11)  0.2001 ( 12) -0.1308 ( 13) -0.1154 ( 21) -0.1216 ( 23)
          -0.1092 ( 24)  0.1221 ( 29) -0.1172 ( 32)  0.1765 ( 33)  0.1729 ( 34)
          -0.1010 ( 35)  0.1772 ( 37)  0.1213 ( 43) -0.1237 ( 45)  0.1812 ( 47)
           0.1443 ( 48) -0.1098 ( 49) -0.1725 ( 51) -0.1683 ( 53) -0.1068 ( 56)
          -0.2450 ( 57) -0.1025 ( 59)  0.1655 ( 61)  0.2635 ( 63) -0.2075 ( 66)
           0.2355 ( 69)
 CRD 37=  -0.2302 (  2)  0.2091 (  5) -0.1117 (  6)  0.1657 (  8)  0.1014 ( 10)
          -0.1872 ( 11)  0.1930 ( 13) -0.2074 ( 14)  0.1436 ( 18) -0.1423 ( 19)
           0.1187 ( 25) -0.1076 ( 26)  0.1370 ( 28) -0.1511 ( 30) -0.1219 ( 31)
           0.1107 ( 35) -0.1126 ( 36)  0.1484 ( 38) -0.1533 ( 39)  0.1513 ( 42)
          -0.2084 ( 45)  0.1706 ( 46) -0.1933 ( 48)  0.1920 ( 50)  0.2691 ( 52)
           0.1062 ( 56) -0.1192 ( 57)  0.2764 ( 58)  0.1198 ( 60) -0.1213 ( 65)
          -0.1927 ( 66) -0.1312 ( 68) -0.1573 ( 69)
 CRD 38=   0.7223 ( 15) -0.2886 ( 25)  0.2618 ( 26)  0.2131 ( 28) -0.2350 ( 30)
           0.1359 ( 44)  0.1525 ( 45) -0.1123 ( 47)  0.1574 ( 48)  0.1131 ( 56)
           0.1006 ( 57)  0.1130 ( 60)
 CRD 39=   0.5775 ( 40)  0.5771 ( 41)  0.5774 ( 42)

 THE DETERMINANT OF THE G MATRIX IS 10**(   -13)


                     --------------------
                     INTERNAL COORDINATES
                     --------------------

                 - - ATOMS - -         COORDINATE      COORDINATE
 NO.   TYPE    I  J  K  L  M  N        (BOHR,RAD)       (ANG,DEG)
 ----------------------------------------------------------------
   1 STRETCH   1  3                     5.2912328       2.8000000
   2 STRETCH   2  4                     3.3538460       1.7747790
   3 STRETCH   2  3                     3.3196218       1.7566683
   4 STRETCH   2  6                     3.3539733       1.7748464
   5 STRETCH   2  5                     3.3538992       1.7748072
   6 STRETCH   4  8                     2.0679643       1.0943196
   7 STRETCH   4  7                     2.0574453       1.0887532
   8 STRETCH   4  9                     2.0572881       1.0886701
   9 STRETCH   5 12                     2.0573449       1.0887001
  10 STRETCH   5 11                     2.0679960       1.0943364
  11 STRETCH   5 10                     2.0573635       1.0887099
  12 STRETCH   6 15                     2.0678311       1.0942492
  13 STRETCH   6 14                     2.0574193       1.0887395
  14 STRETCH   6 13                     2.0574658       1.0887641
  15 BEND      1  3  2                  3.1407285     179.9504864
  16 BEND      2  5 11                  1.8647629     106.8430437
  17 BEND      2  4  8                  1.8654887     106.8846315
  18 BEND      2  6 13                  1.9363405     110.9441357
  19 BEND      2  6 14                  1.9367673     110.9685932
  20 BEND      2  4  9                  1.9363663     110.9456164
  21 BEND      2  5 12                  1.9367468     110.9674169
  22 BEND      2  5 10                  1.9366586     110.9623649
  23 BEND      2  4  7                  1.9362777     110.9405404
  24 BEND      2  6 15                  1.8648449     106.8477426
  25 BEND      3  2  4                  1.8625915     106.7186329
  26 BEND      3  2  5                  1.8629232     106.7376352
  27 BEND      3  2  6                  1.8629692     106.7402727
  28 BEND      4  2  6                  1.9560829     112.0752918
  29 BEND      4  2  5                  1.9558860     112.0640120
  30 BEND      5  2  6                  1.9557846     112.0582053
  31 BEND      7  4  9                  1.9373963     111.0046285
  32 BEND      7  4  8                  1.8926647     108.4417006
  33 BEND      8  4  9                  1.8931684     108.4705596
  34 BEND     10  5 11                  1.8926604     108.4414529
  35 BEND     10  5 12                  1.9375674     111.0144323
  36 BEND     11  5 12                  1.8929064     108.4555452
  37 BEND     13  6 14                  1.9376724     111.0204481
  38 BEND     13  6 15                  1.8928290     108.4511126
  39 BEND     14  6 15                  1.8928573     108.4527372
  40 TORSION   1  3  2  5               0.6078242      34.8257609
  41 TORSION   1  3  2  4               2.7021086     154.8194185
  42 TORSION   1  3  2  6              -1.4865386     -85.1723901
  43 TORSION   3  2  4  8              -3.1397635    -179.8951976
  44 TORSION   3  2  6 15               3.1406228     179.9444323
  45 TORSION   3  2  6 14              -1.0822197     -62.0066193
  46 TORSION   3  2  4  7              -1.0795371     -61.8529181
  47 TORSION   3  2  5 10              -1.0836507     -62.0886112
  48 TORSION   3  2  6 13               1.0805476      61.9108182
  49 TORSION   3  2  5 11               3.1395369     179.8822159
  50 TORSION   3  2  5 12               1.0791952      61.8333328
  51 TORSION   3  2  4  9               1.0825410      62.0250294
  52 TORSION   4  2  6 15              -1.1093065     -63.5585802
  53 TORSION   4  2  6 14               0.9510363      54.4903681
  54 TORSION   4  2  5 10              -3.1167730    -178.5779384
  55 TORSION   4  2  6 13               3.1138036     178.4078057
  56 TORSION   4  2  5 12              -0.9539271     -54.6559945
  57 TORSION   4  2  5 11               1.1064146      63.3928887
  58 TORSION   5  2  6 15               1.1071274      63.4337280
  59 TORSION   5  2  6 14              -3.1157151    -178.5173236
  60 TORSION   5  2  4  7               0.9537852      54.6478664
  61 TORSION   5  2  6 13              -0.9529478     -54.5998861
  62 TORSION   5  2  4  9               3.1158633     178.5258139
  63 TORSION   5  2  4  8              -1.1064412     -63.3944130
  64 TORSION   6  2  4  7              -3.1130207    -178.3629494
  65 TORSION   6  2  5 10               0.9498725      54.4236833
  66 TORSION   6  2  5 11              -1.1101252     -63.6054896
  67 TORSION   6  2  5 12               3.1127184     178.3456273
  68 TORSION   6  2  4  9              -0.9509427     -54.4850018
  69 TORSION   6  2  4  8               1.1099381      63.5947712

     ------------------------------------------
     THE POINT GROUP IS C1 , NAXIS= 0, ORDER= 1
     ------------------------------------------

 -- VARIATIONAL SPACE WILL BE RESTRICTED TO PURE SPHERICAL HARMONICS ONLY --
 AFTER EXCLUDING CONTAMINANT COMBINATIONS FROM THE CARTESIAN GAUSSIAN BASIS
 SET, THE NUMBER OF SPHERICAL HARMONICS KEPT IN THE VARIATION SPACE IS  316

     DIMENSIONS OF THE SYMMETRY SUBSPACES ARE
 A   =  316

 ..... DONE SETTING UP THE RUN .....
 CPU     0: STEP CPU TIME=     0.08 TOTAL CPU TIME=        0.1 (    0.0 MIN)
 TOTAL WALL CLOCK TIME=        0.2 SECONDS, CPU UTILIZATION IS  60.00%


          -----------------------------
          STATIONARY POINT LOCATION RUN
          -----------------------------


           ** GEOMETRY CONSTRAINTS ARE BEING APPLIED. **

          TRANSFORMING DISPLACEMENT FROM INTERNALS TO CARTESIANS
          THE ROOT MEAN SQUARE ERROR IN ITERATION   1 IS   0.00000000
 WARNING! THE RADIUS IN CARTESIANS IS    0.00000
 OBTAINING INITIAL HESSIAN, HESS=GUESS   
 DIAGONAL GUESS HESSIAN IN INTERNAL COORDS IS
     1  0.1501     2  0.4333     3  0.3624     4  0.4333     5  0.4333
     6  0.3435     7  0.3472     8  0.3473     9  0.3472    10  0.3435
    11  0.3472    12  0.3435    13  0.3472    14  0.3472    15  0.2531
    16  0.2409    17  0.2409    18  0.2412    19  0.2412    20  0.2412
    21  0.2412    22  0.2412    23  0.2412    24  0.2409    25  0.2785
    26  0.2785    27  0.2785    28  0.2914    29  0.2914    30  0.2914
    31  0.2035    32  0.2032    33  0.2033    34  0.2032    35  0.2035
    36  0.2032    37  0.2035    38  0.2032    39  0.2033    40  0.2500
    41  0.2500    42  0.2500    43  0.2500    44  0.2500    45  0.2500
    46  0.2500    47  0.2500    48  0.2500    49  0.2500    50  0.2500
    51  0.2500    52  0.2500    53  0.2500    54  0.2500    55  0.2500
    56  0.2500    57  0.2500    58  0.2500    59  0.2500    60  0.2500
    61  0.2500    62  0.2500    63  0.2500    64  0.2500    65  0.2500
    66  0.2500    67  0.2500    68  0.2500    69  0.2500
 TRANSFORMING HESSIAN TO SYMMETRY COORDINATES

          PARAMETERS CONTROLLING GEOMETRY SEARCH ARE
          METHOD =QA                  UPHESS =BFGS    
          NNEG   =         0          NFRZ   =         0
          NSTEP  =        50          IFOLOW =         1
          HESS   =GUESS               RESTAR =         F
          IHREP  =         0          HSSEND =         F
          NPRT   =         0          NPUN   =         0
          OPTTOL = 1.000E-04          RMIN   = 1.500E-03
          RMAX   = 1.000E-01          RLIM   = 7.000E-02
          DXMAX  = 3.000E-01          PURIFY =         F
          MOVIE  =         F          TRUPD  =         T
          TRMAX  = 5.000E-01          TRMIN  = 5.000E-02
          ITBMAT =         5          STPT   =         F
          STSTEP = 1.000E-02          PROJCT=          T

 BEGINNING GEOMETRY SEARCH POINT NSERCH=   0 ...

 COORDINATES OF ALL ATOMS ARE (ANGS)
   ATOM   CHARGE       X              Y              Z
 ------------------------------------------------------------
 LA         57.0  -0.1739353441   1.1341682690  -4.0490164368
 P          15.0  -0.0160069936   0.1376657529   0.3945479060
 O           8.0  -0.0778195166   0.5219066728  -1.3184675020
 C           6.0  -1.4654988897   0.8501215167   1.1302247814
 C           6.0   1.4765199622   0.8604103862   1.0269590936
 C           6.0  -0.0050770142  -1.6326142950   0.5213106592
 H           1.0  -1.4672475565   1.9329545877   1.0168533834
 H           1.0  -1.4287662934   0.6139187391   2.1981173053
 H           1.0  -2.3698934785   0.4124163827   0.7110742664
 H           1.0   2.3525884508   0.4284432840   0.5461288118
 H           1.0   1.5157057615   0.6238485151   2.0947021175
 H           1.0   1.4632828210   1.9431640610   0.9141000909
 H           1.0   0.8771134855  -2.0518056402   0.0402433537
 H           1.0  -0.9164585159  -2.0586607830   0.1051114545
 H           1.0   0.0344331745  -1.8739611195   1.5878808131


                     --------------------
                     INTERNAL COORDINATES
                     --------------------

                 - - ATOMS - -         COORDINATE      COORDINATE
 NO.   TYPE    I  J  K  L  M  N        (BOHR,RAD)       (ANG,DEG)
 ----------------------------------------------------------------
   1 STRETCH   1  3                     5.2912328       2.8000000
   2 STRETCH   2  4                     3.3538460       1.7747790
   3 STRETCH   2  3                     3.3196218       1.7566683
   4 STRETCH   2  6                     3.3539733       1.7748464
   5 STRETCH   2  5                     3.3538992       1.7748072
   6 STRETCH   4  8                     2.0679643       1.0943196
   7 STRETCH   4  7                     2.0574453       1.0887532
   8 STRETCH   4  9                     2.0572881       1.0886701
   9 STRETCH   5 12                     2.0573449       1.0887001
  10 STRETCH   5 11                     2.0679960       1.0943364
  11 STRETCH   5 10                     2.0573635       1.0887099
  12 STRETCH   6 15                     2.0678311       1.0942492
  13 STRETCH   6 14                     2.0574193       1.0887395
  14 STRETCH   6 13                     2.0574658       1.0887641
  15 BEND      1  3  2                  3.1407285     179.9504864
  16 BEND      2  5 11                  1.8647629     106.8430437
  17 BEND      2  4  8                  1.8654887     106.8846315
  18 BEND      2  6 13                  1.9363405     110.9441357
  19 BEND      2  6 14                  1.9367673     110.9685932
  20 BEND      2  4  9                  1.9363663     110.9456164
  21 BEND      2  5 12                  1.9367468     110.9674169
  22 BEND      2  5 10                  1.9366586     110.9623649
  23 BEND      2  4  7                  1.9362777     110.9405404
  24 BEND      2  6 15                  1.8648449     106.8477426
  25 BEND      3  2  4                  1.8625915     106.7186329
  26 BEND      3  2  5                  1.8629232     106.7376352
  27 BEND      3  2  6                  1.8629692     106.7402727
  28 BEND      4  2  6                  1.9560829     112.0752918
  29 BEND      4  2  5                  1.9558860     112.0640120
  30 BEND      5  2  6                  1.9557846     112.0582053
  31 BEND      7  4  9                  1.9373963     111.0046285
  32 BEND      7  4  8                  1.8926647     108.4417006
  33 BEND      8  4  9                  1.8931684     108.4705596
  34 BEND     10  5 11                  1.8926604     108.4414529
  35 BEND     10  5 12                  1.9375674     111.0144323
  36 BEND     11  5 12                  1.8929064     108.4555452
  37 BEND     13  6 14                  1.9376724     111.0204481
  38 BEND     13  6 15                  1.8928290     108.4511126
  39 BEND     14  6 15                  1.8928573     108.4527372
  40 TORSION   1  3  2  5               0.6078242      34.8257609
  41 TORSION   1  3  2  4               2.7021086     154.8194185
  42 TORSION   1  3  2  6              -1.4865386     -85.1723901
  43 TORSION   3  2  4  8              -3.1397635    -179.8951976
  44 TORSION   3  2  6 15               3.1406228     179.9444323
  45 TORSION   3  2  6 14              -1.0822197     -62.0066193
  46 TORSION   3  2  4  7              -1.0795371     -61.8529181
  47 TORSION   3  2  5 10              -1.0836507     -62.0886112
  48 TORSION   3  2  6 13               1.0805476      61.9108182
  49 TORSION   3  2  5 11               3.1395369     179.8822159
  50 TORSION   3  2  5 12               1.0791952      61.8333328
  51 TORSION   3  2  4  9               1.0825410      62.0250294
  52 TORSION   4  2  6 15              -1.1093065     -63.5585802
  53 TORSION   4  2  6 14               0.9510363      54.4903681
  54 TORSION   4  2  5 10              -3.1167730    -178.5779384
  55 TORSION   4  2  6 13               3.1138036     178.4078057
  56 TORSION   4  2  5 12              -0.9539271     -54.6559945
  57 TORSION   4  2  5 11               1.1064146      63.3928887
  58 TORSION   5  2  6 15               1.1071274      63.4337280
  59 TORSION   5  2  6 14              -3.1157151    -178.5173236
  60 TORSION   5  2  4  7               0.9537852      54.6478664
  61 TORSION   5  2  6 13              -0.9529478     -54.5998861
  62 TORSION   5  2  4  9               3.1158633     178.5258139
  63 TORSION   5  2  4  8              -1.1064412     -63.3944130
  64 TORSION   6  2  4  7              -3.1130207    -178.3629494
  65 TORSION   6  2  5 10               0.9498725      54.4236833
  66 TORSION   6  2  5 11              -1.1101252     -63.6054896
  67 TORSION   6  2  5 12               3.1127184     178.3456273
  68 TORSION   6  2  4  9              -0.9509427     -54.4850018
  69 TORSION   6  2  4  8               1.1099381      63.5947712

          ********************
          1 ELECTRON INTEGRALS
          ********************
 TIME TO DO ORDINARY INTEGRALS=      0.01
 TIME TO DO      ECP INTEGRALS=      0.06
 ...... END OF ONE-ELECTRON INTEGRALS ......
 CPU     0: STEP CPU TIME=     0.08 TOTAL CPU TIME=        0.2 (    0.0 MIN)
 TOTAL WALL CLOCK TIME=        0.3 SECONDS, CPU UTILIZATION IS  62.96%

          -------------
          GUESS OPTIONS
          -------------
          GUESS =HUCKEL            NORB  =       0          NORDER=       0
          MIX   =       F          PRTMO =       F          PUNMO =       F
          TOLZ  = 1.0E-08          TOLE  = 1.0E-05
          SYMDEN=       F          PURIFY=       F

 INITIAL GUESS ORBITALS GENERATED BY HUCKEL   ROUTINE.
 HUCKEL GUESS REQUIRES    916545 WORDS.

 STATISTICS FOR GENERATION OF SYMMETRY ORBITAL -Q- MATRIX
 NUMBER OF CARTESIAN ATOMIC ORBITALS=        354
 NUMBER OF SPHERICAL CONTAMINANTS DROPPED=    38
 NUMBER OF LINEARLY DEPENDENT MOS DROPPED=     0
 TOTAL NUMBER OF MOS IN VARIATION SPACE=     316

 SYMMETRIES FOR INITIAL GUESS ORBITALS FOLLOW.   BOTH SET(S).
    29 ORBITALS ARE OCCUPIED (   13 CORE ORBITALS).
    14=A       15=A       16=A       17=A       18=A       19=A       20=A   
    21=A       22=A       23=A       24=A       25=A       26=A       27=A   
    28=A       29=A       30=A       31=A       32=A       33=A       34=A   
    35=A       36=A       37=A       38=A       39=A   
 ...... END OF INITIAL ORBITAL SELECTION ......
 CPU     0: STEP CPU TIME=     0.21 TOTAL CPU TIME=        0.4 (    0.0 MIN)
 TOTAL WALL CLOCK TIME=        0.7 SECONDS, CPU UTILIZATION IS  51.35%

                    ----------------------
                    AO INTEGRAL TECHNOLOGY
                    ----------------------
     S,P,L SHELL ROTATED AXIS INTEGRALS, REPROGRAMMED BY
        KAZUYA ISHIMURA (IMS) AND JOSE SIERRA (SYNSTAR).
     S,P,D,L SHELL ROTATED AXIS INTEGRALS PROGRAMMED BY
        KAZUYA ISHIMURA (INSTITUTE FOR MOLECULAR SCIENCE).
     S,P,D,F,G SHELL TO TOTAL QUARTET ANGULAR MOMENTUM SUM 5,
        ERIC PROGRAM BY GRAHAM FLETCHER (ELORET AND NASA ADVANCED
        SUPERCOMPUTING DIVISION, AMES RESEARCH CENTER).
     S,P,D,F,G,L SHELL GENERAL RYS QUADRATURE PROGRAMMED BY
        MICHEL DUPUIS (PACIFIC NORTHWEST NATIONAL LABORATORY).

          --------------------
          2 ELECTRON INTEGRALS
          --------------------

 DIRECT SCF METHOD SKIPS INTEGRAL STORAGE ON DISK.
 DIRECT TRANSFORMATION SKIPS AO INTEGRAL STORAGE ON DISK.
  ...... END OF TWO-ELECTRON INTEGRALS .....
 CPU     0: STEP CPU TIME=     0.01 TOTAL CPU TIME=        0.4 (    0.0 MIN)
 TOTAL WALL CLOCK TIME=        0.8 SECONDS, CPU UTILIZATION IS  52.00%

          --------------------------
                 RHF SCF CALCULATION
          --------------------------

     NUCLEAR ENERGY =       319.2459599036
     MAXIT =  200     NPUNCH=    2
     EXTRAP=T  DAMP=F  SHIFT=F  RSTRCT=F  DIIS=F  DEM=F  SOSCF=T
     DENSITY MATRIX CONV=  2.00E-06
     SOSCF WILL OPTIMIZE    8323 ORBITAL ROTATIONS, SOGTOL=   0.250
     MEMORY REQUIRED FOR RHF ITERS=    982670 WORDS.

 DIRECT SCF CALCULATION, SCHWRZ=T   FDIFF=F,  DIRTHR=  0.00E+00 NITDIR=10
 SCHWARZ INEQUALITY OVERHEAD:     62118 INTEGRALS, T=        0.00

                                                                                   NONZERO     BLOCKS
 ITER EX DEM     TOTAL ENERGY        E CHANGE  DENSITY CHANGE     ORB. GRAD      INTEGRALS    SKIPPED
   1  0  0     -563.4860908044  -563.4860908044   0.367806017   0.000000000     1405426858    4514961
          ---------------START SECOND ORDER SCF---------------
   2  1  0     -564.5342294760    -1.0481386716   0.116070885   0.060457762     1391597319    4846006
   3  2  0     -564.5983819875    -0.0641525115   0.044072433   0.029393006     1389985664    4850629
   4  3  0     -564.6247216799    -0.0263396923   0.016842233   0.005934513     1391495930    4833199
   5  4  0     -564.6256250588    -0.0009033789   0.004750023   0.004105862     1391654196    4832170
   6  5  0     -564.6262731514    -0.0006480926   0.001861076   0.000576809     1391689988    4830405
   7  6  0     -564.6262934704    -0.0000203190   0.000968420   0.000212221     1391713327    4829868
   8  7  0     -564.6262962233    -0.0000027528   0.000114353   0.000080064     1391728815    4829632
   9  8  0     -564.6262964338    -0.0000002106   0.000061793   0.000034373     1391730447    4829652
  10  9  0     -564.6262964700    -0.0000000361   0.000032828   0.000012213     1391730570    4829677
  11 10  0     -564.6262964769    -0.0000000069   0.000011709   0.000004253     1391730711    4829676
  12 11  0     -564.6262964781    -0.0000000012   0.000008338   0.000002038     1391730486    4829679
  13 12  0     -564.6262964783    -0.0000000002   0.000003466   0.000000680     1391730288    4829677
  14 13  0     -564.6262964783    -0.0000000000   0.000000878   0.000000166     1391730300    4829676

          -----------------
          DENSITY CONVERGED
          -----------------
     TIME TO FORM FOCK OPERATORS=      87.4 SECONDS (       6.2 SEC/ITER)
     FOCK TIME ON FIRST ITERATION=       6.3, LAST ITERATION=       6.2
     TIME TO SOLVE SCF EQUATIONS=       0.5 SECONDS (       0.0 SEC/ITER)

 FINAL RHF ENERGY IS     -564.6262964783 AFTER  14 ITERATIONS

          ------------
          EIGENVECTORS
          ------------

                      1          2          3          4          5
                  -80.4119   -20.9392   -11.5833   -11.5833   -11.5833
                     A          A          A          A          A   
    1  LA 1  S    0.000002  -0.000001   0.000000   0.000003   0.000004
    2  LA 1  X    0.000000   0.000000   0.000003  -0.000004   0.000003
    3  LA 1  Y   -0.000001  -0.000001   0.000005   0.000002  -0.000002
    4  LA 1  Z    0.000006   0.000003   0.000001   0.000002   0.000001
    5  LA 1 XX    0.000001  -0.000014  -0.000002  -0.000004  -0.000003
    6  LA 1 YY    0.000001  -0.000012   0.000002  -0.000002  -0.000004
    7  LA 1 ZZ   -0.000002   0.000025   0.000000   0.000006   0.000007
    8  LA 1 XY    0.000000  -0.000000  -0.000001   0.000002  -0.000001
    9  LA 1 XZ   -0.000000   0.000002  -0.000000   0.000001   0.000000
   10  LA 1 YZ    0.000001  -0.000010   0.000001  -0.000002  -0.000003
   11  LA 1 XX    0.000003   0.000027   0.000005   0.000018   0.000019
   12  LA 1 YY    0.000002   0.000023  -0.000005   0.000012   0.000020
   13  LA 1 ZZ   -0.000005  -0.000050  -0.000000  -0.000030  -0.000039
   14  LA 1 XY    0.000000   0.000001   0.000003  -0.000003   0.000004
   15  LA 1 XZ   -0.000000  -0.000003   0.000002  -0.000005  -0.000000
   16  LA 1 YZ    0.000002   0.000020   0.000001   0.000013   0.000015
   17  LA 1  S   -0.000008  -0.000006  -0.000002  -0.000085  -0.000108
   18  LA 1  X   -0.000000  -0.000001   0.000008  -0.000013   0.000007
   19  LA 1  Y    0.000000   0.000003   0.000014   0.000015   0.000007
   20  LA 1  Z   -0.000001  -0.000015   0.000002  -0.000039  -0.000054
   21  LA 1  S    0.000004   0.000019   0.000003   0.000124   0.000159
   22  LA 1  X    0.000000   0.000001  -0.000019   0.000031  -0.000016
   23  LA 1  Y   -0.000000  -0.000005  -0.000035  -0.000040  -0.000021
   24  LA 1  Z    0.000002   0.000020  -0.000005   0.000110   0.000150
   25  LA 1  S   -0.000003   0.000012  -0.000000  -0.000001  -0.000002
   26  LA 1  X   -0.000000   0.000000  -0.000004   0.000005  -0.000005
   27  LA 1  Y    0.000002  -0.000003  -0.000007  -0.000002   0.000004
   28  LA 1  Z   -0.000011   0.000012  -0.000002  -0.000006  -0.000006
   29  LA 1 XX   -0.000002  -0.000010  -0.000008  -0.000035  -0.000041
   30  LA 1 YY   -0.000002  -0.000009   0.000016  -0.000021  -0.000042
   31  LA 1 ZZ    0.000003   0.000019  -0.000008   0.000056   0.000083
   32  LA 1 XY   -0.000000  -0.000000  -0.000002  -0.000001  -0.000001
   33  LA 1 XZ    0.000000   0.000001  -0.000016   0.000027  -0.000013
   34  LA 1 YZ   -0.000001  -0.000008  -0.000025  -0.000035  -0.000023
   35  P  2  S    1.000136   0.000073   0.000002   0.000082   0.000105
   36  P  2  S    0.000164   0.000451   0.000012   0.000586   0.000749
   37  P  2  S    0.000180   0.000594   0.000018   0.000915   0.001168
   38  P  2  S   -0.000937  -0.000180  -0.000006  -0.000288  -0.000367
   39  P  2  S   -0.000381  -0.002403  -0.000000   0.000041   0.000052
   40  P  2  X   -0.000002  -0.000003  -0.000268   0.000380  -0.000284
   41  P  2  Y    0.000013   0.000020  -0.000466  -0.000231   0.000124
   42  P  2  Z   -0.000060  -0.000090  -0.000092   0.000079   0.000222
   43  P  2  X   -0.000002  -0.000010  -0.000711   0.001009  -0.000753
   44  P  2  Y    0.000011   0.000059  -0.001236  -0.000608   0.000334
   45  P  2  Z   -0.000048  -0.000262  -0.000244   0.000194   0.000570
   46  P  2  X    0.000001   0.000004   0.000026  -0.000037   0.000027
   47  P  2  Y   -0.000007  -0.000025   0.000045   0.000025  -0.000009
   48  P  2  Z    0.000030   0.000114   0.000009  -0.000019  -0.000036
   49  P  2  X   -0.000003   0.000054   0.000069  -0.000084   0.000084
   50  P  2  Y    0.000018  -0.000338   0.000115  -0.000009  -0.000116
   51  P  2  Z   -0.000080   0.001499   0.000028   0.000279   0.000325
   52  P  2 XX   -0.000003  -0.000066  -0.000202  -0.000045   0.000108
   53  P  2 YY   -0.000003  -0.000057   0.000230   0.000130  -0.000045
   54  P  2 ZZ    0.000006   0.000122  -0.000028  -0.000084  -0.000063
   55  P  2 XY   -0.000000  -0.000002  -0.000115   0.000157  -0.000119
   56  P  2 XZ    0.000000   0.000008  -0.000082   0.000125  -0.000105
   57  P  2 YZ   -0.000002  -0.000049  -0.000048  -0.000003   0.000054
   58  P  2 XX   -0.000021  -0.000007  -0.000250   0.000080   0.000274
   59  P  2 YY   -0.000018  -0.000007   0.000382   0.000304   0.000042
   60  P  2 ZZ    0.000039   0.000014  -0.000132  -0.000384  -0.000315
   61  P  2 XY   -0.000001  -0.000000  -0.000113   0.000138  -0.000099
   62  P  2 XZ    0.000002   0.000001  -0.000255   0.000351  -0.000310
   63  P  2 YZ   -0.000015  -0.000006  -0.000312  -0.000021   0.000268
   64  P  2 XXX   0.000001   0.000010  -0.000019   0.000029  -0.000015
   65  P  2 YYY  -0.000006   0.000028  -0.000029  -0.000064  -0.000056
   66  P  2 ZZZ  -0.000012  -0.000182   0.000024  -0.000039  -0.000081
   67  P  2 XXY   0.000000  -0.000162  -0.000013   0.000033   0.000051
   68  P  2 XXZ   0.000009   0.000110  -0.000007   0.000042   0.000073
   69  P  2 YYX   0.000000   0.000003  -0.000005   0.000007  -0.000003
   70  P  2 YYZ   0.000006   0.000134  -0.000025   0.000010   0.000037
   71  P  2 ZZX  -0.000001  -0.000017   0.000031  -0.000046   0.000023
   72  P  2 ZZY   0.000007   0.000124   0.000052   0.000053   0.000025
   73  P  2 XYZ   0.000000   0.000012  -0.000012   0.000022  -0.000017
   74  P  2 XX    0.000001   0.000022   0.000004   0.000003   0.000000
   75  P  2 YY    0.000001   0.000019  -0.000004  -0.000000   0.000003
   76  P  2 ZZ   -0.000002  -0.000041  -0.000000  -0.000002  -0.000003
   77  P  2 XY    0.000000   0.000001   0.000002  -0.000003   0.000003
   78  P  2 XZ   -0.000000  -0.000003   0.000001  -0.000001   0.000001
   79  P  2 YZ    0.000001   0.000017  -0.000001   0.000001   0.000001
   80  O  3  S   -0.000000   0.975795   0.000001   0.000028   0.000036
   81  O  3  S   -0.000001  -0.001113   0.000001   0.000041   0.000053
   82  O  3  S    0.000005   0.043086  -0.000000  -0.000012  -0.000015
   83  O  3  S   -0.000057   0.004808   0.000002   0.000133   0.000170
   84  O  3  X    0.000000   0.000022   0.000004  -0.000006   0.000004
   85  O  3  Y   -0.000000  -0.000133   0.000007   0.000005   0.000001
   86  O  3  Z    0.000001   0.000592   0.000001  -0.000010  -0.000015
   87  O  3  X   -0.000001  -0.000020  -0.000009   0.000014  -0.000009
   88  O  3  Y    0.000004   0.000122  -0.000016  -0.000015  -0.000004
   89  O  3  Z   -0.000017  -0.000545  -0.000003   0.000032   0.000045
[...]
            144  C  4 XXZ     0.00083     0.07707
            145  C  4 YYX     0.00084     0.06912
            146  C  4 YYZ     0.00134     0.06647
            147  C  4 ZZX     0.00000     0.07026
            148  C  4 ZZY     0.00000     0.06681
            149  C  4 XYZ     0.00000     0.00298
            150  C  5  S      1.95556     1.55545
            151  C  5  S      0.82702     0.43103
            152  C  5  S      0.16161     0.27778
            153  C  5  S      0.32109     0.14900
            154  C  5  X      0.27365     0.21227
            155  C  5  Y      0.29365     0.22568
            156  C  5  Z      0.29308     0.22536
            157  C  5  X      0.51781     0.26650
            158  C  5  Y      0.53764     0.27891
            159  C  5  Z      0.53800     0.27993
            160  C  5  X      0.14517     0.18586
            161  C  5  Y      0.19584     0.20491
            162  C  5  Z      0.22852     0.21052
            163  C  5 XX      0.00525     0.08569
            164  C  5 YY      0.00531     0.08685
            165  C  5 ZZ      0.00415     0.08575
            166  C  5 XY      0.00427     0.00456
            167  C  5 XZ      0.00336     0.00463
            168  C  5 YZ      0.00000     0.00377
            169  C  5 XX      0.00891     0.09201
            170  C  5 YY      0.01281     0.09108
            171  C  5 ZZ      0.01126     0.08631
            172  C  5 XY      0.01044     0.02572
            173  C  5 XZ      0.00818     0.02564
            174  C  5 YZ      0.00000     0.01545
            175  C  5 XXX     0.00091     0.15973
            176  C  5 YYY     0.00074     0.17150
            177  C  5 ZZZ     0.00081     0.16834
            178  C  5 XXY     0.00127     0.07567
            179  C  5 XXZ     0.00087     0.07820
            180  C  5 YYX     0.00080     0.06897
            181  C  5 YYZ     0.00135     0.06677
            182  C  5 ZZX     0.00000     0.07059
            183  C  5 ZZY     0.00000     0.06669
            184  C  5 XYZ     0.00000     0.00293
            185  C  6  S      1.95556     1.55581
            186  C  6  S      0.82703     0.43309
            187  C  6  S      0.16161     0.27884
            188  C  6  S      0.32109     0.14989
            189  C  6  X      0.29958     0.22753
            190  C  6  Y      0.26261     0.20922
            191  C  6  Z      0.29819     0.22844
            192  C  6  X      0.54244     0.27892
            193  C  6  Y      0.50633     0.26777
            194  C  6  Z      0.54467     0.27985
            195  C  6  X      0.20636     0.20837
            196  C  6  Y      0.11856     0.17381
            197  C  6  Z      0.24458     0.21363
            198  C  6 XX      0.00569     0.08693
            199  C  6 YY      0.00589     0.09052
            200  C  6 ZZ      0.00365     0.08678
            201  C  6 XY      0.00432     0.00329
            202  C  6 XZ      0.00277     0.00457
            203  C  6 YZ      0.00000     0.00266
            204  C  6 XX      0.01080     0.08887
            205  C  6 YY      0.01457     0.10302
            206  C  6 ZZ      0.01029     0.08773
            207  C  6 XY      0.00882     0.02328
            208  C  6 XZ      0.00711     0.01989
            209  C  6 YZ      0.00000     0.01399
            210  C  6 XXX     0.00089     0.16234
            211  C  6 YYY     0.00094     0.16946
            212  C  6 ZZZ     0.00060     0.16687
            213  C  6 XXY     0.00143     0.07172
            214  C  6 XXZ     0.00094     0.07549
            215  C  6 YYX     0.00050     0.07863
            216  C  6 YYZ     0.00145     0.07262
            217  C  6 ZZX     0.00000     0.07379
            218  C  6 ZZY     0.00000     0.06447
            219  C  6 XYZ     0.00000     0.00271
            220  H  7  S      0.25442     0.19628
            221  H  7  S      0.45484     0.24658
            222  H  7  S      0.06808     0.12257
            223  H  7  X      0.00162     0.00210
            224  H  7  Y      0.00741     0.01090
            225  H  7  Z      0.00171     0.00220
            226  H  7  X      0.01065     0.02913
            227  H  7  Y      0.00463     0.04748
            228  H  7  Z      0.00894     0.02998
            229  H  7 XX      0.00032     0.06974
            230  H  7 YY      0.00064     0.11727
            231  H  7 ZZ      0.00101     0.07024
            232  H  7 XY      0.00009     0.00491
            233  H  7 XZ      0.00084     0.00015
            234  H  7 YZ      0.00000     0.00512
            235  H  8  S      0.24996     0.19214
            236  H  8  S      0.45048     0.24209
            237  H  8  S      0.05369     0.11729
            238  H  8  X      0.00163     0.00212
            239  H  8  Y      0.00188     0.00262
            240  H  8  Z      0.00726     0.01047
            241  H  8  X      0.00954     0.02921
            242  H  8  Y      0.00785     0.02920
            243  H  8  Z      0.00581     0.04749
            244  H  8 XX      0.00090     0.06858
            245  H  8 YY      0.00012     0.07119
            246  H  8 ZZ      0.00010     0.11291
            247  H  8 XY      0.00093     0.00022
            248  H  8 XZ      0.00079     0.00494
            249  H  8 YZ      0.00000     0.00542
            250  H  9  S      0.25442     0.18862
            251  H  9  S      0.45482     0.24455
            252  H  9  S      0.06803     0.12291
            253  H  9  X      0.00585     0.00771
            254  H  9  Y      0.00248     0.00354
            255  H  9  Z      0.00241     0.00340
            256  H  9  X      0.00961     0.04424
            257  H  9  Y      0.00719     0.03145
            258  H  9  Z      0.00742     0.03223
            259  H  9 XX      0.00048     0.10032
            260  H  9 YY      0.00090     0.07568
            261  H  9 ZZ      0.00063     0.07492
            262  H  9 XY      0.00065     0.00523
            263  H  9 XZ      0.00025     0.00527
            264  H  9 YZ      0.00000     0.00164
            265  H 10  S      0.25442     0.18792
            266  H 10  S      0.45482     0.24432
            267  H 10  S      0.06802     0.12290
            268  H 10  X      0.00561     0.00738
            269  H 10  Y      0.00245     0.00346
            270  H 10  Z      0.00267     0.00376
            271  H 10  X      0.01005     0.04373
            272  H 10  Y      0.00723     0.03135
            273  H 10  Z      0.00694     0.03294
            274  H 10 XX      0.00052     0.09838
            275  H 10 YY      0.00087     0.07505
            276  H 10 ZZ      0.00061     0.07702
            277  H 10 XY      0.00062     0.00494
            278  H 10 XZ      0.00028     0.00535
            279  H 10 YZ      0.00000     0.00191
            280  H 11  S      0.24996     0.19222
            281  H 11  S      0.45048     0.24206
            282  H 11  S      0.05369     0.11726
            283  H 11  X      0.00165     0.00218
            284  H 11  Y      0.00188     0.00262
            285  H 11  Z      0.00724     0.01043
            286  H 11  X      0.00987     0.02930
            287  H 11  Y      0.00785     0.02920
            288  H 11  Z      0.00547     0.04741
            289  H 11 XX      0.00088     0.06870
            290  H 11 YY      0.00013     0.07122
            291  H 11 ZZ      0.00010     0.11285
            292  H 11 XY      0.00095     0.00022
            293  H 11 XZ      0.00079     0.00495
            294  H 11 YZ      0.00000     0.00541
            295  H 12  S      0.25443     0.19627
            296  H 12  S      0.45484     0.24659
            297  H 12  S      0.06809     0.12256
            298  H 12  X      0.00161     0.00209
            299  H 12  Y      0.00741     0.01091
            300  H 12  Z      0.00172     0.00220
            301  H 12  X      0.01076     0.02921
            302  H 12  Y      0.00467     0.04754
            303  H 12  Z      0.00879     0.02987
            304  H 12 XX      0.00032     0.06975
            305  H 12 YY      0.00064     0.11728
            306  H 12 ZZ      0.00101     0.07022
            307  H 12 XY      0.00009     0.00489
            308  H 12 XZ      0.00083     0.00015
            309  H 12 YZ      0.00000     0.00514
            310  H 13  S      0.25442     0.18802
            311  H 13  S      0.45483     0.24380
            312  H 13  S      0.06807     0.12252
            313  H 13  X      0.00536     0.00683
            314  H 13  Y      0.00264     0.00399
            315  H 13  Z      0.00274     0.00388
            316  H 13  X      0.00441     0.04105
            317  H 13  Y      0.01282     0.03402
            318  H 13  Z      0.00700     0.03271
            319  H 13 XX      0.00051     0.09625
            320  H 13 YY      0.00073     0.07676
            321  H 13 ZZ      0.00073     0.07740
            322  H 13 XY      0.00060     0.00492
            323  H 13 XZ      0.00033     0.00519
            324  H 13 YZ      0.00000     0.00214
            325  H 14  S      0.25442     0.18879
            326  H 14  S      0.45483     0.24408
            327  H 14  S      0.06804     0.12253
            328  H 14  X      0.00559     0.00716
            329  H 14  Y      0.00267     0.00409
            330  H 14  Z      0.00247     0.00351
            331  H 14  X      0.00406     0.04178
            332  H 14  Y      0.01282     0.03416
            333  H 14  Z      0.00734     0.03182
            334  H 14 XX      0.00047     0.09828
            335  H 14 YY      0.00076     0.07747
            336  H 14 ZZ      0.00076     0.07523
            337  H 14 XY      0.00061     0.00522
            338  H 14 XZ      0.00030     0.00513
            339  H 14 YZ      0.00000     0.00186
            340  H 15  S      0.24995     0.19258
            341  H 15  S      0.45048     0.24219
            342  H 15  S      0.05369     0.11728
            343  H 15  X      0.00164     0.00211
            344  H 15  Y      0.00198     0.00300
            345  H 15  Z      0.00715     0.01023
            346  H 15  X      0.00801     0.02821
            347  H 15  Y      0.01114     0.03114
            348  H 15  Z      0.00404     0.04717
            349  H 15 XX      0.00085     0.06808
            350  H 15 YY      0.00018     0.07268
            351  H 15 ZZ      0.00011     0.11249
            352  H 15 XY      0.00077     0.00026
            353  H 15 XZ      0.00094     0.00505
            354  H 15 YZ      0.00000     0.00532

          ----- MULLIKEN ATOMIC OVERLAP POPULATIONS -----
          (OFF-DIAGONAL ELEMENTS NEED TO BE MULTIPLIED BY 2)

             1           2           3           4           5

    1    8.5038644
    2   -0.0024741  13.1566530
    3    0.1220170   0.3562085   8.2268850
    4   -0.0001038   0.3327753  -0.0283834   5.0494713
    5   -0.0001033   0.3327736  -0.0283835  -0.0354885   5.0494903
    6   -0.0001060   0.3327796  -0.0283841  -0.0354498  -0.0354569
    7    0.0003362  -0.0166386   0.0003035   0.3662670  -0.0026466
    8    0.0004671  -0.0111137   0.0015012   0.3531619   0.0003529
    9    0.0003337  -0.0166401   0.0002979   0.3663085   0.0026714
   10    0.0003332  -0.0166409   0.0002975   0.0026712   0.3663059
   11    0.0004669  -0.0111108   0.0015012   0.0003554   0.3531616
   12    0.0003366  -0.0166390   0.0003045  -0.0026491   0.3662652
   13    0.0003359  -0.0166366   0.0003017   0.0026721  -0.0026532
   14    0.0003343  -0.0166365   0.0002985  -0.0026503   0.0026711
   15    0.0004679  -0.0111229   0.0015009   0.0003543   0.0003577

             6           7           8           9          10

    6    5.0493831
    7    0.0026726   0.4967255
    8    0.0003550  -0.0130795   0.4729929
    9   -0.0026500  -0.0192854  -0.0130868   0.4966316
   10   -0.0026453  -0.0000054  -0.0000161  -0.0000838   0.4966258
   11    0.0003513  -0.0001258  -0.0001682  -0.0000160  -0.0130871
   12    0.0026729   0.0007834  -0.0001253  -0.0000055  -0.0192862
   13    0.3662864  -0.0000839  -0.0000165  -0.0000051   0.0007873
   14    0.3663017  -0.0000052  -0.0001250   0.0007886  -0.0000048
   15    0.3531651  -0.0000163  -0.0001723  -0.0001260  -0.0001274

            11          12          13          14          15

   11    0.4729882
   12   -0.0130779   0.4967363
   13   -0.0001236  -0.0000056   0.4966946
   14   -0.0000168  -0.0000839  -0.0192852   0.4966492
   15   -0.0001713  -0.0000159  -0.0130817  -0.0130871   0.4730018

          TOTAL MULLIKEN AND LOWDIN ATOMIC POPULATIONS
       ATOM         MULL.POP.    CHARGE          LOW.POP.     CHARGE
    1 LA            8.626506    2.373494         8.751647    2.248353
    2 P            14.375537    0.624463        14.333855    0.666145
    3 O             8.626266   -0.626266         8.299169   -0.299169
    4 C             6.369312   -0.369312         6.038773   -0.038773
    5 C             6.369318   -0.369318         6.040041   -0.040041
    6 C             6.369276   -0.369276         6.054779   -0.054779
    7 H             0.815201    0.184799         0.954651    0.045349
    8 H             0.790928    0.209072         0.935879    0.064121
    9 H             0.815133    0.184867         0.941704    0.058296
   10 H             0.815124    0.184876         0.940418    0.059582
   11 H             0.790927    0.209073         0.936012    0.063988
   12 H             0.815210    0.184790         0.954674    0.045326
   13 H             0.815187    0.184813         0.939480    0.060520
   14 H             0.815149    0.184851         0.941124    0.058876
   15 H             0.790927    0.209073         0.937794    0.062206

          MULLIKEN SPHERICAL HARMONIC POPULATIONS
       ATOM           S       P       D      F      G      H      I    TOTAL
    1 LA            2.03    6.35    0.24   0.00   0.00   0.00   0.00    8.63
    2 P             5.32    8.40    0.58   0.07   0.00   0.00   0.00   14.38
    3 O             3.54    5.04    0.04   0.00   0.00   0.00   0.00    8.63
    4 C             3.27    3.02    0.07   0.01   0.00   0.00   0.00    6.37
    5 C             3.27    3.02    0.07   0.01   0.00   0.00   0.00    6.37
    6 C             3.27    3.02    0.07   0.01   0.00   0.00   0.00    6.37
    7 H             0.78    0.03    0.00   0.00   0.00   0.00   0.00    0.82
    8 H             0.75    0.03    0.00   0.00   0.00   0.00   0.00    0.79
    9 H             0.78    0.03    0.00   0.00   0.00   0.00   0.00    0.82
   10 H             0.78    0.03    0.00   0.00   0.00   0.00   0.00    0.82
   11 H             0.75    0.03    0.00   0.00   0.00   0.00   0.00    0.79
   12 H             0.78    0.03    0.00   0.00   0.00   0.00   0.00    0.82
   13 H             0.78    0.03    0.00   0.00   0.00   0.00   0.00    0.82
   14 H             0.78    0.03    0.00   0.00   0.00   0.00   0.00    0.82
   15 H             0.75    0.03    0.00   0.00   0.00   0.00   0.00    0.79

          -------------------------------
          BOND ORDER AND VALENCE ANALYSIS     BOND ORDER THRESHOLD=0.050
          -------------------------------

                   BOND                       BOND                       BOND
  ATOM PAIR DIST  ORDER      ATOM PAIR DIST  ORDER      ATOM PAIR DIST  ORDER
    1   2  4.480  0.058        1   3  2.800  0.555        2   3  1.680  0.992
    2   4  1.777  0.990        2   5  1.777  0.990        2   6  1.777  0.990
    4   7  1.089  0.884        4   8  1.093  0.865        4   9  1.089  0.884
    5  10  1.089  0.884        5  11  1.093  0.865        5  12  1.089  0.884
    6  13  1.089  0.884        6  14  1.089  0.884        6  15  1.093  0.865

                       TOTAL       BONDED        FREE
      ATOM            VALENCE     VALENCE     VALENCE
    1 LA               -0.112       0.641      -0.753
    2 P                 4.727       4.335       0.393
    3 O                 2.418       1.573       0.845
    4 C                 3.928       3.633       0.295
    5 C                 3.928       3.633       0.295
    6 C                 3.928       3.633       0.295
    7 H                 0.981       0.930       0.052
    8 H                 0.971       0.920       0.051
    9 H                 0.981       0.930       0.052
   10 H                 0.981       0.930       0.052
   11 H                 0.971       0.920       0.051
   12 H                 0.981       0.930       0.052
   13 H                 0.981       0.930       0.052
   14 H                 0.981       0.930       0.052
   15 H                 0.971       0.920       0.051

          ---------------------
          ELECTROSTATIC MOMENTS
          ---------------------

 POINT   1           X           Y           Z (BOHR)    CHARGE
                -0.210854    1.399711   -4.335727        3.00 (A.U.)
         DX          DY          DZ         /D/  (DEBYE)
    -0.182739    1.151331   -5.134725    5.265393
 ...... END OF PROPERTY EVALUATION ......
 CPU     0: STEP CPU TIME=     0.20 TOTAL CPU TIME=     2187.8 (   36.5 MIN)
 TOTAL WALL CLOCK TIME=     2221.5 SECONDS, CPU UTILIZATION IS  98.48%
  $VIB   
          IVIB=   0 IATOM=   0 ICOORD=   0 E=     -565.5739301244
  7.707335385E-08 7.845504533E-07 1.731958239E-07-2.497520648E-06-2.651655687E-05
  7.307591590E-06 2.556262417E-06-2.082325066E-06 3.900446842E-05 1.526757987E-05
  1.333372524E-05-1.842019560E-05-1.695503788E-05 1.078914603E-05-1.378837388E-05
  1.465641835E-06 9.721696238E-06-2.896785835E-05-1.081261422E-05-1.073038122E-06
 -1.035092462E-06 8.112724076E-06 3.837397919E-07 1.569979376E-06-1.483093856E-06
  2.890719173E-07 5.212800625E-06 2.064989473E-06 6.589467921E-07 5.319380907E-06
 -8.452698658E-06 7.619730708E-07 2.163949171E-06 1.094283072E-05-1.077147902E-06
 -2.920690389E-06-5.172146298E-06-6.504176404E-06-1.383166955E-06 2.870917030E-06
 -6.051463109E-06 2.622138284E-06 2.015092786E-06 6.581857939E-06 3.141873438E-06
 -1.827390971E-01 1.151331011E+00-5.134725219E+00
 ......END OF GEOMETRY SEARCH......
 CPU     0: STEP CPU TIME=     0.01 TOTAL CPU TIME=     2187.8 (   36.5 MIN)
 TOTAL WALL CLOCK TIME=     2221.5 SECONDS, CPU UTILIZATION IS  98.48%
               2991967  WORDS OF DYNAMIC MEMORY USED
 EXECUTION OF GAMESS TERMINATED NORMALLY Thu Jun  9 00:58:28 2016
 DDI: 44487344 bytes (42.4 MB / 5 MWords) used by master data server.

 ----------------------------------------
 CPU timing information for all processes
 ========================================
 0: 2184.687 + 3.201 = 2187.889
 1: 2184.191 + 3.109 = 2187.301
 2: 2184.997 + 3.212 = 2188.210
 3: 2183.943 + 3.230 = 2187.174
 4: 2185.667 + 3.291 = 2188.959
 5: 2184.557 + 3.164 = 2187.722
 6: 2187.478 + 3.156 = 2190.634
 7: 2185.269 + 3.274 = 2188.544
 8: 2185.667 + 3.312 = 2188.980
 9: 2187.199 + 3.390 = 2190.589
 10: 2187.264 + 3.227 = 2190.491
 11: 2185.917 + 3.178 = 2189.96
 12: 2185.832 + 3.230 = 2189.63
 13: 2185.526 + 3.245 = 2188.772
 14: 2186.467 + 3.190 = 2189.658
 15: 2185.204 + 2.557 = 2187.762
 16: 0.20 + 0.56 = 0.77
 17: 0.18 + 0.63 = 0.82
 18: 0.12 + 0.66 = 0.79
 19: 0.25 + 0.58 = 0.84
 20: 0.17 + 0.57 = 0.75
 21: 0.18 + 0.60 = 0.79
 22: 0.23 + 0.56 = 0.80
 23: 0.15 + 0.65 = 0.81
 24: 0.12 + 0.69 = 0.82
 25: 0.14 + 0.68 = 0.83
 26: 0.15 + 0.60 = 0.76
 27: 0.15 + 0.61 = 0.77
 28: 0.20 + 0.50 = 0.71
 29: 0.14 + 0.62 = 0.77
 30: 0.20 + 0.65 = 0.86
 31: 0.17 + 0.58 = 0.76
 ----------------------------------------
unset echo
----- accounting info -----
Files used on the master node node222 were:
-rw-r--r-- 1 fzahari quantum     1993 Jun  9 00:21 /local/scratch/fzahari/196572.share/bnd_var-280.F05
-rw-r--r-- 1 fzahari quantum 17178000 Jun  9 00:58 /local/scratch/fzahari/196572.share/bnd_var-280.F10
-rw-r--r-- 1 fzahari quantum        8 Jun  9 00:21 /local/scratch/fzahari/196572.share/bnd_var-280.nodes.mpd
ls: No match.
ls: No match.
ls: No match.
Thu Jun  9 00:58:31 CDT 2016
34970.777u 56.746s 37:05.98 1573.5%	0+0k 104+317464io 0pf+0w
