----- GAMESS execution script 'rungms' -----
This job is running on host node203
under operating system Linux at Thu Jun 9 10:55:03 CDT 2016
PBS has assigned the following compute nodes to this run:
node203
Available scratch disk space (Kbyte units) at beginning of the job is
Filesystem           1K-blocks      Used Available Use% Mounted on
/dev/sda7            2670838024    260760 2534906480   1% /local
GAMESS temporary binary files will be written to /local/scratch/fzahari/196589.share
GAMESS supplementary output files will be written to /work1/quantum/fzahari/scr
Copying input file bnd_var-019.inp to your run's scratch directory...
cp bnd_var-019.inp /local/scratch/fzahari/196589.share/bnd_var-019.F05
unset echo
setenv I_MPI_WAIT_MODE enable
setenv I_MPI_PIN disable
setenv I_MPI_DEBUG 0
setenv I_MPI_STATS 0
setenv I_MPI_FABRICS dapl
setenv I_MPI_DAT_LIBRARY libdat2.so
unset echo
MPI kickoff will run GAMESS on 16 cores in 1 nodes.
The binary to be executed is /home/mschmidt/gamess/gamess.132.x
MPI will run 16 compute processes and 16 data servers,
    placing 16 of each process type onto each node.
The scratch disk space on each node is /local/scratch/fzahari/196589.share, with free space
Filesystem           1K-blocks      Used Available Use% Mounted on
/dev/sda7            2670838024    260784 2534906456   1% /local
setenv I_MPI_HYDRA_ENV all
setenv I_MPI_PERHOST 32
unset echo
mpiexec.hydra -f /local/scratch/fzahari/196589.share/bnd_var-019.processes.mpd -n 32 /home/mschmidt/gamess/gamess.132.x
          ******************************************************
          *         GAMESS VERSION =  5 DEC 2014 (R1)          *
          *             FROM IOWA STATE UNIVERSITY             *
          * M.W.SCHMIDT, K.K.BALDRIDGE, J.A.BOATZ, S.T.ELBERT, *
          *   M.S.GORDON, J.H.JENSEN, S.KOSEKI, N.MATSUNAGA,   *
          *          K.A.NGUYEN, S.J.SU, T.L.WINDUS,           *
          *       TOGETHER WITH M.DUPUIS, J.A.MONTGOMERY       *
          *         J.COMPUT.CHEM.  14, 1347-1363(1993)        *
          **************** 64 BIT INTEL VERSION ****************

  SINCE 1993, STUDENTS AND POSTDOCS WORKING AT IOWA STATE UNIVERSITY
  AND ALSO IN THEIR VARIOUS JOBS AFTER LEAVING ISU HAVE MADE IMPORTANT
  CONTRIBUTIONS TO THE CODE:
     IVANA ADAMOVIC, CHRISTINE AIKENS, YURI ALEXEEV, POOJA ARORA,
     ANDREY ASADCHEV, ROB BELL, PRADIPTA BANDYOPADHYAY, JONATHAN BENTZ,
     BRETT BODE, KURT BRORSEN, CALEB CARLIN, GALINA CHABAN, WEI CHEN,
     CHEOL HO CHOI, PAUL DAY, ALBERT DEFUSCO, NUWAN DESILVA, TIM DUDLEY,
     DMITRI FEDOROV, GRAHAM FLETCHER, MARK FREITAG, KURT GLAESEMANN,
     DAN KEMP, GRANT MERRILL, NORIYUKI MINEZAWA, JONATHAN MULLIN,
     TAKESHI NAGATA, SEAN NEDD, HEATHER NETZLOFF, BOSILJKA NJEGIC, RYAN OLSON,
     MIKE PAK, SPENCER PRUITT, LUKE ROSKOP, JIM SHOEMAKER, LYUDMILA SLIPCHENKO,
     TONY SMITH, SAROM SOK, JIE SONG, TETSUYA TAKETSUGU, SIMON WEBB,
     PENG XU, SOOHAENG YOO, FEDERICO ZAHARIEV

  ADDITIONAL CODE HAS BEEN PROVIDED BY COLLABORATORS IN OTHER GROUPS:
     IOWA STATE UNIVERSITY:
          JOE IVANIC, AARON WEST, LAIMUTIS BYTAUTAS, KLAUS RUEDENBERG
     UNIVERSITY OF TOKYO: KIMIHIKO HIRAO, TAKAHITO NAKAJIMA,
          TAKAO TSUNEDA, MUNEAKI KAMIYA, SUSUMU YANAGISAWA,
          KIYOSHI YAGI, MAHITO CHIBA, SEIKEN TOKURA, NAOAKI KAWAKAMI
     UNIVERSITY OF AARHUS: FRANK JENSEN
     UNIVERSITY OF IOWA: VISVALDAS KAIRYS, HUI LI
     NATIONAL INST. OF STANDARDS AND TECHNOLOGY: WALT STEVENS, DAVID GARMER
     UNIVERSITY OF PISA: BENEDETTA MENNUCCI, JACOPO TOMASI
     UNIVERSITY OF MEMPHIS: HENRY KURTZ, PRAKASHAN KORAMBATH
     UNIVERSITY OF ALBERTA: TOBY ZENG, MARIUSZ KLOBUKOWSKI
     UNIVERSITY OF NEW ENGLAND: MARK SPACKMAN
     MIE UNIVERSITY: HIROAKI UMEDA
     NAT. INST. OF ADVANCED INDUSTRIAL SCIENCE AND TECHNOLOGY: KAZUO KITAURA
     MICHIGAN STATE UNIVERSITY:
          KAROL KOWALSKI, MARTA WLOCH, JEFFREY GOUR, JESSE LUTZ,
          WEI LI, PIOTR PIECUCH
     UNIVERSITY OF SILESIA: MONIKA MUSIAL, STANISLAW KUCHARSKI
     FACULTES UNIVERSITAIRES NOTRE-DAME DE LA PAIX:
          OLIVIER QUINET, BENOIT CHAMPAGNE
     UNIVERSITY OF CALIFORNIA - SANTA BARBARA: BERNARD KIRTMAN
     INSTITUTE FOR MOLECULAR SCIENCE:
          KAZUYA ISHIMURA, MICHIO KATOUDA, AND SHIGERU NAGASE
     UNIVERSITY OF NOTRE DAME: ANNA POMOGAEVA, DAN CHIPMAN
     KYUSHU UNIVERSITY:
          HARUYUKI NAKANO,
          FENG LONG GU, JACEK KORCHOWIEC, MARCIN MAKOWSKI, AND YURIKO AOKI,
          HIROTOSHI MORI AND EISAKU MIYOSHI
     PENNSYLVANIA STATE UNIVERSITY:
          TZVETELIN IORDANOV, CHET SWALINA, JONATHAN SKONE,
          SHARON HAMMES-SCHIFFER
     WASEDA UNIVERSITY:
          MASATO KOBAYASHI, TOMOKO AKAMA, TSUGUKI TOUMA,
          TAKESHI YOSHIKAWA, YASUHIRO IKABATA, HIROMI NAKAI
     NANJING UNIVERSITY: SHUHUA LI
     UNIVERSITY OF NEBRASKA:
          PEIFENG SU, DEJUN SI, NANDUN THELLAMUREGE, YALI WANG, HUI LI
     UNIVERSITY OF ZURICH: ROBERTO PEVERATI, KIM BALDRIDGE
     N. COPERNICUS UNIVERSITY AND JACKSON STATE UNIVERSITY:
          MARIA BARYSZ
     UNIVERSITY OF COPENHAGEN: CASPER STEINMANN
     TOKYO INSTITUTE OF TECHNOLOGY: HIROYA NAKATA
     NAGOYA UNIVERSITY: YOSHIO NISHIMOTO, STEPHAN IRLE


 PARALLEL VERSION RUNNING ON       16 PROCESSORS IN        1 NODES.

 EXECUTION OF GAMESS BEGUN Thu Jun  9 10:55:04 2016

            ECHO OF THE FIRST FEW INPUT CARDS -
 INPUT CARD> $ZMAT DLC=.T. AUTO=.T. $END                                                    
 INPUT CARD> $ZMAT IFZMAT(1)=1, 1 , 3  FVALUE(1)= 1.9 $END                                  
 INPUT CARD> $CONTRL COORD=UNIQUE NZVAR= 39 $END                                            
 INPUT CARD> $CONTRL ICHARG=+3 MULT=1                                                       
 INPUT CARD>         MPLEVL=2                                                               
 INPUT CARD>         SCFTYP=RHF                                                             
 INPUT CARD>         MAXIT=200 ISPHER=1 ICUT=11                                             
 INPUT CARD>         RUNTYP=OPTIMIZE                                                        
 INPUT CARD>         PP=READ                                                                
 INPUT CARD>         $END                                                                   
 INPUT CARD> $SCF    DIRSCF=.T. FDIFF=.F. $END                                              
 INPUT CARD> $TRANS  DIRTRF=.T. $END                                                        
 INPUT CARD> $SYSTEM MWORDS=300 MEMDDI=300 $END                                             
 INPUT CARD> $GUESS  GUESS=HUCKEL $END                                                      
 INPUT CARD> $BASIS  BASNAM(1)=METAL,                                                       
 INPUT CARD>                   LIGP,                                                        
 INPUT CARD>                   LIGO,                                                        
 INPUT CARD>                   LIGC,                                                        
 INPUT CARD>                   LIGC,                                                        
 INPUT CARD>                   LIGC,                                                        
 INPUT CARD>                   LIGH,                                                        
 INPUT CARD>                   LIGH,                                                        
 INPUT CARD>                   LIGH,                                                        
 INPUT CARD>                   LIGH,                                                        
 INPUT CARD>                   LIGH,                                                        
 INPUT CARD>                   LIGH,                                                        
 INPUT CARD>                   LIGH,                                                        
 INPUT CARD>                   LIGH,                                                        
 INPUT CARD>                   LIGH                                                         
 INPUT CARD> $END                                                                           
 INPUT CARD> $DATA                                                                          
 INPUT CARD>                                                                                
 INPUT CARD> C1                                                                             
 INPUT CARD> LA 57.0 -0.1739353441 1.134168269 -4.0490164368                                
 INPUT CARD> P 15.0 -0.0469013666957 0.334464123078 -0.483128537313                         
 INPUT CARD> O 8.0 -0.108713889696 0.718705042978 -2.19614394531                            
 INPUT CARD> C 6.0 -1.4963932628 1.04691988688 0.252548338087                               
 INPUT CARD> C 6.0 1.4456255891 1.05720875638 0.149282650287                                
 INPUT CARD> C 6.0 -0.0359713872957 -1.43581592482 -0.356365784113                          
 INPUT CARD> H 1.0 -1.4981419296 2.12975295788 0.139176940087                               
 INPUT CARD> H 1.0 -1.4596606665 0.810717109278 1.32044086199                               
 INPUT CARD> H 1.0 -2.4007878516 0.609214752878 -0.166602176913                             
 INPUT CARD> H 1.0 2.3216940777 0.625241654178 -0.331547631513                              
 INPUT CARD> H 1.0 1.4848113884 0.820646885278 1.21702567419                                
 INPUT CARD> H 1.0 1.4323884479 2.13996243118 0.0364236475869                               
 INPUT CARD> H 1.0 0.846219112404 -1.85500727002 -0.837433089613                            
 INPUT CARD> H 1.0 -0.947352888996 -1.86186241282 -0.772564988813                           
 INPUT CARD> H 1.0 0.00353880140425 -1.67716274932 0.710204369787                           
 INPUT CARD> $END                                                                           
 INPUT CARD>!                                                                               
  300000000 WORDS OF MEMORY AVAILABLE

     BASIS OPTIONS
     -------------
     GBASIS=             IGAUSS=       0      POLAR=NONE    
     NDFUNC=       0     NFFUNC=       0     DIFFSP=       F
     NPFUNC=       0      DIFFS=       F     BASNAM=METAL   

 USING BASNAM FOR ATOM CUSTOMIZED BASIS CONSTRUCTION
     ----------------
     ATOM  BASIS NAME
     ----------------
       1   METAL   
       2   LIGP    
       3   LIGO    
       4   LIGC    
       5   LIGC    
       6   LIGC    
       7   LIGH    
       8   LIGH    
       9   LIGH    
      10   LIGH    
      11   LIGH    
      12   LIGH    
      13   LIGH    
      14   LIGH    
      15   LIGH    
 NOW LOCATING ALL   15 BASIS SETS IN YOUR INPUT FILE...
 FOUND BASIS SET  $METAL 
  SBKJC                        
                               
  $END                         
 FOUND BASIS SET  $LIGP  
  CCT                          
                               
  $END                         
 FOUND BASIS SET  $LIGO  
  CCT                          
                               
  $END                         
 FOUND BASIS SET  $LIGC  
  CCT                          
                               
  $END                         
 FOUND BASIS SET  $LIGH  
  CCT                          
                               
  $END                         
    5 UNIQUE ATOM CUSTOMIZED BASIS SETS WERE FOUND.

     SEARCHING FOR $MCP
     $MCP GROUP NOT FOUND


     RUN TITLE
     ---------
                                                                                 

 THE POINT GROUP OF THE MOLECULE IS C1      
 THE ORDER OF THE PRINCIPAL AXIS IS     0

 ATOM      ATOMIC                      COORDINATES (BOHR)
           CHARGE         X                   Y                   Z
 LA         57.0    -0.3286901399        2.1432672524       -7.6515315853
 P          15.0    -0.0886307315        0.6320455453       -0.9129805524
 O           8.0    -0.2054394626        1.3581555972       -4.1501102862
 C           6.0    -2.8277732366        1.9783917173        0.4772471576
 C           6.0     2.7318362442        1.9978348614        0.2821033038
 C           6.0    -0.0679760654       -2.7132986667       -0.6734336834
 H           1.0    -2.8310777377        4.0246495119        0.2630062806
 H           1.0    -2.7583586947        1.5320331901        2.4952714122
 H           1.0    -4.5368311942        1.1512489506       -0.3148324633
 H           1.0     4.3873656342        1.1815354025       -0.6265341754
 H           1.0     2.8058866675        1.5507977459        2.2998450442
 H           1.0     2.7068216745        4.0439426189        0.0688307134
 H           1.0     1.5991222480       -3.5054554456       -1.5825190724
 H           1.0    -1.7902373739       -3.5184097871       -1.4599361366
 H           1.0     0.0066873650       -3.1693780330        1.3420916542

          INTERNUCLEAR DISTANCES (ANGS.)
          ------------------------------

                1 LA         2 P          3 O          4 C          5 C     

   1 LA      0.0000000    3.6566680    1.9000000 *  4.5011073    4.5005128  
   2 P       3.6566680    0.0000000    1.7566683 *  1.7747790 *  1.7748072 *
   3 O       1.9000000 *  1.7566683 *  0.0000000    2.8336325 *  2.8340046 *
   4 C       4.5011073    1.7747790 *  2.8336325 *  0.0000000    2.9438486 *
   5 C       4.5005128    1.7748072 *  2.8340046 *  2.9438486 *  0.0000000  
   6 C       4.5010578    1.7748464 *  2.8340846 *  2.9440764 *  2.9438040 *
   7 H       4.5039622    2.3909047 *  3.0619096    1.0887532 *  3.1330848  
   8 H       5.5307126    2.3399932 *  3.7682744    1.0943196 *  3.1421422  
   9 H       4.5063942    2.3909116 *  3.0634345    1.0886701 *  3.8852771  
  10 H       4.5063008    2.3911865 *  3.0646921    3.8854564    1.0887099 *
  11 H       5.5300032    2.3394534 *  3.7682147    3.1414960    1.0943364 *
  12 H       4.5036339    2.3912459 *  3.0625687    3.1335625    1.0887001 *
  13 H       4.5044592    2.3910209 *  3.0630030    3.8854953    3.1327142  
  14 H       4.5066072    2.3913253 *  3.0641835    3.1326214    3.8855020  
  15 H       5.5303944    2.3394936 *  3.7682415    3.1432263    3.1418203  

                6 C          7 H          8 H          9 H         10 H     

   1 LA      4.5010578    4.5039622    5.5307126    4.5063942    4.5063008  
   2 P       1.7748464 *  2.3909047 *  2.3399932 *  2.3909116 *  2.3911865 *
   3 O       2.8340846 *  3.0619096    3.7682744    3.0634345    3.0646921  
   4 C       2.9440764 *  1.0887532 *  1.0943196 *  1.0886701 *  3.8854564  
   5 C       2.9438040 *  3.1330848    3.1421422    3.8852771    1.0887099 *
   6 C       0.0000000    3.8854584    3.1441187    3.1321746    3.1316387  
   7 H       3.8854584    0.0000000    1.7710790 *  1.7945214 *  4.1323459  
   8 H       3.1441187    1.7710790 *  0.0000000    1.7713330 *  4.1306308  
   9 H       3.1321746    1.7945214 *  1.7713330 *  0.0000000    4.7253888  
  10 H       3.1316387    4.1323459    4.1306308    4.7253888    0.0000000  
  11 H       3.1432412    3.4312574    2.9463043 *  4.1300134    1.7710548 *
  12 H       3.8854285    2.9323490 *  3.4321337    4.1325112    1.7946159 *
  13 H       1.0887641 *  4.7252629    4.1327458    4.1310360    2.9299456 *
  14 H       1.0887395 *  4.1312995    3.4330473    2.9301683 *  4.1312045  
  15 H       1.0942492 *  4.1320364    2.9500657 *  3.4317777    3.4293086  

               11 H         12 H         13 H         14 H         15 H     

   1 LA      5.5300032    4.5036339    4.5044592    4.5066072    5.5303944  
   2 P       2.3394534 *  2.3912459 *  2.3910209 *  2.3913253 *  2.3394936 *
   3 O       3.7682147    3.0625687    3.0630030    3.0641835    3.7682415  
   4 C       3.1414960    3.1335625    3.8854953    3.1326214    3.1432263  
   5 C       1.0943364 *  1.0887001 *  3.1327142    3.8855020    3.1418203  
   6 C       3.1432412    3.8854285    1.0887641 *  1.0887395 *  1.0942492 *
   7 H       3.4312574    2.9323490 *  4.7252629    4.1312995    4.1320364  
   8 H       2.9463043 *  3.4321337    4.1327458    3.4330473    2.9500657 *
   9 H       4.1300134    4.1325112    4.1310360    2.9301683 *  3.4317777  
  10 H       1.7710548 *  1.7946159 *  2.9299456 *  4.1312045    3.4293086  
  11 H       0.0000000    1.7712038 *  3.4333258    4.1315554    2.9478957 *
  12 H       1.7712038 *  0.0000000    4.1312229    4.7256993    4.1311060  
  13 H       3.4333258    4.1312229    0.0000000    1.7947578 *  1.7711354 *
  14 H       4.1315554    4.7256993    1.7947578 *  0.0000000    1.7711335 *
  15 H       2.9478957 *  4.1311060    1.7711354 *  1.7711335 *  0.0000000  

  * ... LESS THAN  3.000


     ATOMIC BASIS SET
     ----------------
 THE CONTRACTED PRIMITIVE FUNCTIONS HAVE BEEN UNNORMALIZED
 THE CONTRACTED BASIS FUNCTIONS ARE NOW NORMALIZED TO UNITY

  SHELL TYPE  PRIMITIVE        EXPONENT          CONTRACTION COEFFICIENT(S)

 LA        

      1   L       1             9.1730000   -0.054833023521   -0.009797991527
      1   L       2             3.1200000    0.676604290237    0.231261800020
      1   L       3             2.1040000   -1.034429443730   -0.601214480110
      1   L       4             1.3200000   -0.518907222591    0.195188831214
      1   L       5             0.4960000    1.631603699894    1.076136069429

      2   D       6             1.2380000   -0.053797021791
      2   D       7             0.6061000    0.380144153981
      2   D       8             0.2518000    0.720349291785

      3   D       9             0.0978700    1.000000000000

      4   L      10             0.6182000   -0.107095028128   -0.051868986063
      4   L      11             0.0454600    1.033448271434    1.008107729120

      5   L      12             0.0177500    1.000000000000    1.000000000000

      6   L      13             0.2004000    1.000000000000    1.000000000000

      7   D      14             0.0353600    1.000000000000

 P         

      8   S      15        312400.0000000    0.000057689641
      8   S      16         46800.0000000    0.000448246591
      8   S      17         10650.0000000    0.002349131061
      8   S      18          3018.0000000    0.009781571802
      8   S      19           986.8000000    0.034142936511
      8   S      20           357.4000000    0.100192955985
      8   S      21           139.6000000    0.234346168617
      8   S      22            57.6300000    0.382391849918
      8   S      23            24.6000000    0.318052941833
      8   S      24            10.1200000    0.070770999093
      8   S      25             4.2830000   -0.001817789630
      8   S      26             1.8050000    0.002161561737
      8   S      27             0.2782000    0.000432249354

      9   S      28        312400.0000000   -0.000016380204
      9   S      29         46800.0000000   -0.000127233535
      9   S      30         10650.0000000   -0.000668625166
      9   S      31          3018.0000000   -0.002795303744
      9   S      32           986.8000000   -0.009928227435
      9   S      33           357.4000000   -0.030244566456
      9   S      34           139.6000000   -0.077884705328
      9   S      35            57.6300000   -0.156724571545
      9   S      36            24.6000000   -0.198042753651
      9   S      37            10.1200000    0.037971251521
      9   S      38             4.2830000    0.552751544147
      9   S      39             1.8050000    0.542611452452
      9   S      40             0.2782000   -0.009675942874

     10   S      41        312400.0000000    0.000006865735
     10   S      42         46800.0000000    0.000053281983
     10   S      43         10650.0000000    0.000280421002
     10   S      44          3018.0000000    0.001170789768
     10   S      45           986.8000000    0.004173591138
     10   S      46           357.4000000    0.012720496749
     10   S      47           139.6000000    0.033152766352
     10   S      48            57.6300000    0.067671246836
     10   S      49            24.6000000    0.089831018862
     10   S      50            10.1200000   -0.020305232360
     10   S      51             4.2830000   -0.313280408979
     10   S      52             1.8050000   -0.563687905527
     10   S      53             0.2782000    1.117494073734

     11   S      54             0.6158000    1.000000000000

     12   S      55             0.1055000    1.000000000000

     13   P      56           504.9000000    0.002433660431
     13   P      57           119.4000000    0.019305559477
     13   P      58            37.9600000    0.088473106893
     13   P      59            13.9500000    0.254701981099
     13   P      60             5.4570000    0.440199242653
     13   P      61             2.1770000    0.383632006272
     13   P      62             0.2877000   -0.003946337074

     14   P      63           504.9000000   -0.000954298933
     14   P      64           119.4000000   -0.007664025747
     14   P      65            37.9600000   -0.035465925259
     14   P      66            13.9500000   -0.106164716437
     14   P      67             5.4570000   -0.187210586037
     14   P      68             2.1770000   -0.181495819791
     14   P      69             0.2877000    0.991672644618

     15   P      70             0.8010000    1.000000000000

     16   P      71             0.0971400    1.000000000000

     17   D      72             0.6480000    1.000000000000

     18   D      73             0.2180000    1.000000000000

     19   F      74             0.4520000    1.000000000000

     20   D      75             3.1200000    1.000000000000

 O         

     21   S      76         15330.0000000    0.000520198307
     21   S      77          2299.0000000    0.004023344781
     21   S      78           522.4000000    0.020729083329
     21   S      79           147.3000000    0.081082327080
     21   S      80            47.5500000    0.236226352118
     21   S      81            16.7600000    0.443518209420
     21   S      82             6.2070000    0.358670588689
     21   S      83             0.6882000   -0.008349797237

     22   S      84         15330.0000000   -0.000197236012
     22   S      85          2299.0000000   -0.001535010700
     22   S      86           522.4000000   -0.007951183914
     22   S      87           147.3000000   -0.032113452892
     22   S      88            47.5500000   -0.100269643049
     22   S      89            16.7600000   -0.234047111838
     22   S      90             6.2070000   -0.301410927756
     22   S      91             0.6882000    1.034919649508

     23   S      92             1.7520000    1.000000000000

     24   S      93             0.2384000    1.000000000000

     25   P      94            34.4600000    0.041163489568
     25   P      95             7.7490000    0.257762835858
     25   P      96             2.2800000    0.802419274427

     26   P      97             0.7156000    1.000000000000

     27   P      98             0.2140000    1.000000000000

     28   D      99             2.3140000    1.000000000000

     29   D     100             0.6450000    1.000000000000

     30   F     101             1.4280000    1.000000000000

 C         

     31   S     102          8236.0000000    0.000542430189
     31   S     103          1235.0000000    0.004196427901
     31   S     104           280.8000000    0.021540914108
     31   S     105            79.2700000    0.083614949614
     31   S     106            25.5900000    0.239871618922
     31   S     107             8.9970000    0.443751820060
     31   S     108             3.3190000    0.353579696469
     31   S     109             0.3643000   -0.009176366076

     32   S     110          8236.0000000   -0.000196392234
     32   S     111          1235.0000000   -0.001525950274
     32   S     112           280.8000000   -0.007890449028
     32   S     113            79.2700000   -0.031514870532
     32   S     114            25.5900000   -0.096910008320
     32   S     115             8.9970000   -0.220541526288
     32   S     116             3.3190000   -0.296069112937
     32   S     117             0.3643000    1.040503432950

     33   S     118             0.9059000    1.000000000000

     34   S     119             0.1285000    1.000000000000

     35   P     120            18.7100000    0.039426387165
     35   P     121             4.1330000    0.244088984924
     35   P     122             1.2000000    0.815492008943

     36   P     123             0.3827000    1.000000000000

     37   P     124             0.1209000    1.000000000000

     38   D     125             1.0970000    1.000000000000

     39   D     126             0.3180000    1.000000000000

     40   F     127             0.7610000    1.000000000000

 C         

     41   S     128          8236.0000000    0.000542430189
     41   S     129          1235.0000000    0.004196427901
     41   S     130           280.8000000    0.021540914108
     41   S     131            79.2700000    0.083614949614
     41   S     132            25.5900000    0.239871618922
     41   S     133             8.9970000    0.443751820060
     41   S     134             3.3190000    0.353579696469
     41   S     135             0.3643000   -0.009176366076

     42   S     136          8236.0000000   -0.000196392234
     42   S     137          1235.0000000   -0.001525950274
     42   S     138           280.8000000   -0.007890449028
     42   S     139            79.2700000   -0.031514870532
     42   S     140            25.5900000   -0.096910008320
     42   S     141             8.9970000   -0.220541526288
     42   S     142             3.3190000   -0.296069112937
     42   S     143             0.3643000    1.040503432950

     43   S     144             0.9059000    1.000000000000

     44   S     145             0.1285000    1.000000000000

     45   P     146            18.7100000    0.039426387165
     45   P     147             4.1330000    0.244088984924
     45   P     148             1.2000000    0.815492008943

     46   P     149             0.3827000    1.000000000000

     47   P     150             0.1209000    1.000000000000

     48   D     151             1.0970000    1.000000000000

     49   D     152             0.3180000    1.000000000000

     50   F     153             0.7610000    1.000000000000

 C         

     51   S     154          8236.0000000    0.000542430189
     51   S     155          1235.0000000    0.004196427901
     51   S     156           280.8000000    0.021540914108
     51   S     157            79.2700000    0.083614949614
     51   S     158            25.5900000    0.239871618922
     51   S     159             8.9970000    0.443751820060
     51   S     160             3.3190000    0.353579696469
     51   S     161             0.3643000   -0.009176366076

     52   S     162          8236.0000000   -0.000196392234
     52   S     163          1235.0000000   -0.001525950274
     52   S     164           280.8000000   -0.007890449028
     52   S     165            79.2700000   -0.031514870532
     52   S     166            25.5900000   -0.096910008320
     52   S     167             8.9970000   -0.220541526288
     52   S     168             3.3190000   -0.296069112937
     52   S     169             0.3643000    1.040503432950

     53   S     170             0.9059000    1.000000000000

     54   S     171             0.1285000    1.000000000000

     55   P     172            18.7100000    0.039426387165
     55   P     173             4.1330000    0.244088984924
     55   P     174             1.2000000    0.815492008943

     56   P     175             0.3827000    1.000000000000

     57   P     176             0.1209000    1.000000000000

     58   D     177             1.0970000    1.000000000000

     59   D     178             0.3180000    1.000000000000

     60   F     179             0.7610000    1.000000000000

 H         

     61   S     180            33.8700000    0.025494863235
     61   S     181             5.0950000    0.190362765893
     61   S     182             1.1590000    0.852162022245

     62   S     183             0.3258000    1.000000000000

     63   S     184             0.1027000    1.000000000000

     64   P     185             1.4070000    1.000000000000

     65   P     186             0.3880000    1.000000000000

     66   D     187             1.0570000    1.000000000000

 H         

     67   S     188            33.8700000    0.025494863235
     67   S     189             5.0950000    0.190362765893
     67   S     190             1.1590000    0.852162022245

     68   S     191             0.3258000    1.000000000000

     69   S     192             0.1027000    1.000000000000

     70   P     193             1.4070000    1.000000000000

     71   P     194             0.3880000    1.000000000000

     72   D     195             1.0570000    1.000000000000

 H         

     73   S     196            33.8700000    0.025494863235
     73   S     197             5.0950000    0.190362765893
     73   S     198             1.1590000    0.852162022245

     74   S     199             0.3258000    1.000000000000

     75   S     200             0.1027000    1.000000000000

     76   P     201             1.4070000    1.000000000000

     77   P     202             0.3880000    1.000000000000

     78   D     203             1.0570000    1.000000000000

 H         

     79   S     204            33.8700000    0.025494863235
     79   S     205             5.0950000    0.190362765893
     79   S     206             1.1590000    0.852162022245

     80   S     207             0.3258000    1.000000000000

     81   S     208             0.1027000    1.000000000000

     82   P     209             1.4070000    1.000000000000

     83   P     210             0.3880000    1.000000000000

     84   D     211             1.0570000    1.000000000000

 H         

     85   S     212            33.8700000    0.025494863235
     85   S     213             5.0950000    0.190362765893
     85   S     214             1.1590000    0.852162022245

     86   S     215             0.3258000    1.000000000000

     87   S     216             0.1027000    1.000000000000

     88   P     217             1.4070000    1.000000000000

     89   P     218             0.3880000    1.000000000000

     90   D     219             1.0570000    1.000000000000

 H         

     91   S     220            33.8700000    0.025494863235
     91   S     221             5.0950000    0.190362765893
     91   S     222             1.1590000    0.852162022245

     92   S     223             0.3258000    1.000000000000

     93   S     224             0.1027000    1.000000000000

     94   P     225             1.4070000    1.000000000000

     95   P     226             0.3880000    1.000000000000

     96   D     227             1.0570000    1.000000000000

 H         

     97   S     228            33.8700000    0.025494863235
     97   S     229             5.0950000    0.190362765893
     97   S     230             1.1590000    0.852162022245

     98   S     231             0.3258000    1.000000000000

     99   S     232             0.1027000    1.000000000000

    100   P     233             1.4070000    1.000000000000

    101   P     234             0.3880000    1.000000000000

    102   D     235             1.0570000    1.000000000000

 H         

    103   S     236            33.8700000    0.025494863235
    103   S     237             5.0950000    0.190362765893
    103   S     238             1.1590000    0.852162022245

    104   S     239             0.3258000    1.000000000000

    105   S     240             0.1027000    1.000000000000

    106   P     241             1.4070000    1.000000000000

    107   P     242             0.3880000    1.000000000000

    108   D     243             1.0570000    1.000000000000

 H         

    109   S     244            33.8700000    0.025494863235
    109   S     245             5.0950000    0.190362765893
    109   S     246             1.1590000    0.852162022245

    110   S     247             0.3258000    1.000000000000

    111   S     248             0.1027000    1.000000000000

    112   P     249             1.4070000    1.000000000000

    113   P     250             0.3880000    1.000000000000

    114   D     251             1.0570000    1.000000000000

 TOTAL NUMBER OF BASIS SET SHELLS             =  114
 NUMBER OF CARTESIAN GAUSSIAN BASIS FUNCTIONS =  354
 NOTE: THIS RUN WILL RESTRICT THE MO VARIATION SPACE TO SPHERICAL HARMONICS.
 THE NUMBER OF ORBITALS KEPT IN THE VARIATIONAL SPACE WILL BE PRINTED LATER.
 NUMBER OF ELECTRONS                          =  104
 CHARGE OF MOLECULE                           =    3
 SPIN MULTIPLICITY                            =    1
 NUMBER OF OCCUPIED ORBITALS (ALPHA)          =   52
 NUMBER OF OCCUPIED ORBITALS (BETA )          =   52
 TOTAL NUMBER OF ATOMS                        =   15
 THE NUCLEAR REPULSION ENERGY IS      682.4126409220
 NOTE THIS RUN IS USING CORE POTENTIALS, AND THE NUMBER OF ELECTRONS,
 OCCUPIED ORBITALS, AND NUCLEAR REPULSION ENERGY WILL BE ADJUSTED BELOW
 AFTER REMOVAL OF THE CORE CHARGES.

     $CONTRL OPTIONS
     ---------------
 SCFTYP=RHF          RUNTYP=OPTIMIZE     EXETYP=RUN     
 MPLEVL=       2     CITYP =NONE         CCTYP =NONE         VBTYP =NONE    
 DFTTYP=NONE         TDDFT =NONE    
 MULT  =       1     ICHARG=       3     NZVAR =      39     COORD =UNIQUE  
 PP    =READ         RELWFN=NONE         LOCAL =NONE         NUMGRD=       F
 ISPHER=       1     NOSYM =       0     MAXIT =     200     UNITS =ANGS    
 PLTORB=       F     MOLPLT=       F     AIMPAC=       F     FRIEND=        
 NPRINT=       7     IREST =       0     GEOM  =INPUT   
 NORMF =       0     NORMP =       0     ITOL  =      20     ICUT  =      11
 INTTYP=BEST         GRDTYP=BEST         QMTTOL= 1.0E-06

     $SYSTEM OPTIONS
     ---------------
  REPLICATED MEMORY=   300000000 WORDS (ON EVERY NODE).
 DISTRIBUTED MEMDDI=         300 MILLION WORDS IN AGGREGATE,
 MEMDDI DISTRIBUTED OVER  16 PROCESSORS IS    18750000 WORDS/PROCESSOR.
 TOTAL MEMORY REQUESTED ON EACH PROCESSOR=   318750000 WORDS.
 TIMLIM=      525600.00 MINUTES, OR     365.0 DAYS.
 PARALL= T  BALTYP=  DLB     KDIAG=    0  COREFL= F
 MXSEQ2=     300 MXSEQ3=     150  mem10=         0

          --------------
          ECP POTENTIALS
          --------------

 PARAMETERS FOR "LA-ECP  " ON ATOM    1 WITH ZCORE  46 AND LMAX  4 ARE
 FOR L= 4      COEFF    N           ZETA
    1       -2.85665    1        1.42345
 FOR L= 0      COEFF    N           ZETA
    1        8.85347    0       22.29739
    2      -68.41778    2        1.64320
    3      110.12463    2        1.85122
 FOR L= 1      COEFF    N           ZETA
    1        2.98675    0        1.77635
    2      -35.51815    2        3.98941
    3       53.65423    2        2.47524
 FOR L= 2      COEFF    N           ZETA
    1        1.67298    0        1.52169
    2       18.46625    2        1.52182
 FOR L= 3      COEFF    N           ZETA
    1       -4.64430    1        2.67762
    2      -14.43101    1       10.06608

 THE ECP RUN REMOVES   46 CORE ELECTRONS, AND THE SAME NUMBER OF PROTONS.
 NUMBER OF ELECTRONS KEPT IN THE CALCULATION IS =   58
 NUMBER OF OCCUPIED ORBITALS (ALPHA) KEPT IS    =   29
 NUMBER OF OCCUPIED ORBITALS (BETA ) KEPT IS    =   29
 THE ADJUSTED NUCLEAR REPULSION ENERGY=      337.0930495654
          ECP ANGULAR INTS.........     0.03 SECONDS

          ----------------
          PROPERTIES INPUT
          ----------------

     MOMENTS            FIELD           POTENTIAL          DENSITY
 IEMOM =       1   IEFLD =       0   IEPOT =       0   IEDEN =       0
 WHERE =COMASS     WHERE =NUCLEI     WHERE =NUCLEI     WHERE =NUCLEI  
 OUTPUT=BOTH       OUTPUT=BOTH       OUTPUT=BOTH       OUTPUT=BOTH    
 IEMINT=       0   IEFINT=       0                     IEDINT=       0
                                                       MORB  =       0
          EXTRAPOLATION IN EFFECT
          SOSCF IN EFFECT
 ORBITAL PRINTING OPTION: NPREO=     1   354     2     1

     -------------------------------
     INTEGRAL TRANSFORMATION OPTIONS
     -------------------------------
     NWORD  =            0
     CUTOFF = 1.0E-09     MPTRAN =       0
     DIRTRF =       T     AOINTS =DUP     

          ----------------------
          INTEGRAL INPUT OPTIONS
          ----------------------
 NOPK  =       1 NORDER=       0 SCHWRZ=       T

          -----------------------
          MP2 CONTROL INFORMATION
          -----------------------
          NACORE =       13  NBCORE =       13
          LMOMP2 =        F  AOINTS = DUP     
          METHOD =        2  NWORD  =               0
          MP2PRP =        F  OSPT   = NONE    
          CUTOFF = 1.00E-09  CPHFBS = BASISAO 
          CODE   = DDI     

          NUMBER OF CORE -A-  ORBITALS =    13
          NUMBER OF CORE -B-  ORBITALS =    13
          NUMBER OF OCC. -A-  ORBITALS =    29
          NUMBER OF OCC. -B-  ORBITALS =    29
          NUMBER OF MOLECULAR ORBITALS =   354
          NUMBER OF   BASIS  FUNCTIONS =   354

 
 
 -----------------------------------------------
  STATISTICS ON AUTOMATIC COORDINATE GENERATION 
 -----------------------------------------------
  NUMBER OF USER SPECIFIED BONDS                              0
  NUMBER OF BONDS                                            14
  NUMBER OF ANGLES                                           25
  NUMBER OF TORSIONS                                         30
  NUMBER OF EXTRA COORD.                                      0
  NUMBER OF EXTRA COORD. FOR CONSTRAINTS                      0
  NUMBER OF CONSTRAINED COORD.                                1
 
  TOTAL NUMBER OF PRIMITIVES                                 69
 -----------------------------------------------

   --- ENCODED Z MATRIX ---
 COORD  TYPE   I   J   K   L   M   N
    1      1    1   3
    2      1    2   4
    3      1    2   3
    4      1    2   6
    5      1    2   5
    6      1    4   8
    7      1    4   7
    8      1    4   9
    9      1    5  12
   10      1    5  11
   11      1    5  10
   12      1    6  15
   13      1    6  14
   14      1    6  13
   15      2    1   3   2
   16      2    2   5  11
   17      2    2   4   8
   18      2    2   6  13
   19      2    2   6  14
   20      2    2   4   9
   21      2    2   5  12
   22      2    2   5  10
   23      2    2   4   7
   24      2    2   6  15
   25      2    3   2   4
   26      2    3   2   5
   27      2    3   2   6
   28      2    4   2   6
   29      2    4   2   5
   30      2    5   2   6
   31      2    7   4   9
   32      2    7   4   8
   33      2    8   4   9
   34      2   10   5  11
   35      2   10   5  12
   36      2   11   5  12
   37      2   13   6  14
   38      2   13   6  15
   39      2   14   6  15
   40      3    1   3   2   5
   41      3    1   3   2   4
   42      3    1   3   2   6
   43      3    3   2   4   8
   44      3    3   2   6  15
   45      3    3   2   6  14
   46      3    3   2   4   7
   47      3    3   2   5  10
   48      3    3   2   6  13
   49      3    3   2   5  11
   50      3    3   2   5  12
   51      3    3   2   4   9
   52      3    4   2   6  15
   53      3    4   2   6  14
   54      3    4   2   5  10
   55      3    4   2   6  13
   56      3    4   2   5  12
   57      3    4   2   5  11
   58      3    5   2   6  15
   59      3    5   2   6  14
   60      3    5   2   4   7
   61      3    5   2   6  13
   62      3    5   2   4   9
   63      3    5   2   4   8
   64      3    6   2   4   7
   65      3    6   2   5  10
   66      3    6   2   5  11
   67      3    6   2   5  12
   68      3    6   2   4   9
   69      3    6   2   4   8

          INDEP./SYM. INTERNAL COORDINATES
          --------------------------------
 CRD  1=   1.0000 (  1)
 CRD  2=   0.1342 ( 20)  0.1273 ( 22) -0.1087 ( 23)  0.1250 ( 24)  0.1523 ( 25)
           0.2046 ( 26) -0.3570 ( 27)  0.2868 ( 28) -0.5004 ( 29)  0.2136 ( 30)
           0.1894 ( 40) -0.2087 ( 41) -0.1166 ( 46)  0.1118 ( 50)  0.1267 ( 52)
           0.1650 ( 53) -0.1426 ( 58) -0.1043 ( 59) -0.1695 ( 61) -0.1179 ( 65)
          -0.1542 ( 66)  0.1424 ( 69)
 CRD  3=  -0.2844 (  2)  0.2580 (  5)  0.4772 ( 15)  0.1881 ( 18) -0.1736 ( 19)
          -0.1561 ( 20)  0.1753 ( 22) -0.2769 ( 28)  0.3052 ( 30)  0.1351 ( 40)
           0.1006 ( 41) -0.2357 ( 42)  0.1877 ( 44)  0.1092 ( 45)  0.1100 ( 48)
          -0.1076 ( 49)  0.1203 ( 64)  0.1160 ( 65)  0.1240 ( 67)  0.1115 ( 68)
 CRD  4=  -0.1719 (  2)  0.4030 (  4) -0.2310 (  5)  0.1481 ( 18)  0.1732 ( 19)
          -0.2153 ( 21) -0.2044 ( 23) -0.1167 ( 25) -0.1567 ( 26)  0.2733 ( 27)
          -0.1144 ( 29) -0.1299 ( 37)  0.1310 ( 40) -0.1448 ( 41)  0.2380 ( 43)
           0.1980 ( 46) -0.1492 ( 47) -0.2158 ( 49) -0.1855 ( 50)  0.1710 ( 51)
           0.1475 ( 54)  0.1112 ( 56) -0.1228 ( 60) -0.1498 ( 62)  0.1122 ( 65)
          -0.1235 ( 68)
 CRD  5=  -0.3965 (  2) -0.3964 (  4) -0.3965 (  5) -0.2736 ( 16) -0.2736 ( 17)
          -0.2736 ( 24)  0.1192 ( 32)  0.1193 ( 33)  0.1192 ( 34)  0.1191 ( 36)
           0.1191 ( 38)  0.1192 ( 39) -0.1211 ( 54)  0.1211 ( 55) -0.1211 ( 59)
           0.1211 ( 62) -0.1211 ( 64)  0.1211 ( 67)
 CRD  6=  -0.2466 (  2) -0.3433 (  3) -0.2465 (  4) -0.2460 (  5)  0.2310 ( 16)
           0.2313 ( 17) -0.2133 ( 18) -0.2126 ( 19) -0.2127 ( 20) -0.2133 ( 21)
          -0.2121 ( 22) -0.2137 ( 23)  0.2310 ( 24)  0.1638 ( 31)  0.1636 ( 35)
           0.1637 ( 37)  0.1289 ( 54) -0.1289 ( 55)  0.1288 ( 59) -0.1288 ( 62)
           0.1288 ( 64) -0.1287 ( 67)
 CRD  7=   0.3309 (  2) -0.3048 (  5) -0.1094 ( 13)  0.1092 ( 14)  0.1000 ( 15)
          -0.2446 ( 16)  0.2640 ( 17)  0.3942 ( 18) -0.4002 ( 19) -0.1497 ( 20)
          -0.2441 ( 21)  0.1999 ( 22)  0.1991 ( 23) -0.1938 ( 32)  0.2007 ( 36)
          -0.1311 ( 38)  0.1513 ( 39)
 CRD  8=  -0.1380 (  2)  0.3118 (  4) -0.1741 (  5) -0.1982 ( 16) -0.1543 ( 17)
          -0.3494 ( 20)  0.3474 ( 21) -0.3181 ( 22)  0.3703 ( 23)  0.3541 ( 24)
           0.1895 ( 33)  0.1969 ( 34) -0.1530 ( 38) -0.1336 ( 39)
 CRD  9=  -0.1337 (  2)  0.1216 (  5) -0.2953 ( 15) -0.4079 ( 16)  0.4491 ( 17)
          -0.2417 ( 20)  0.2873 ( 21)  0.2061 ( 22) -0.3019 ( 23)  0.2257 ( 31)
          -0.2051 ( 35)
 CRD 10=  -0.3704 ( 18)  0.3709 ( 19) -0.3715 ( 20) -0.3696 ( 21)  0.3712 ( 22)
           0.3701 ( 23) -0.1316 ( 32)  0.1311 ( 33) -0.1307 ( 34)  0.1314 ( 36)
           0.1312 ( 38) -0.1312 ( 39)
 CRD 11=   0.1030 ( 11)  0.1416 ( 12) -0.2902 ( 16) -0.2159 ( 17) -0.2765 ( 18)
          -0.2386 ( 19)  0.3089 ( 20)  0.3281 ( 22)  0.5053 ( 24)  0.1020 ( 27)
           0.1202 ( 32) -0.1309 ( 35)  0.1279 ( 36)  0.2279 ( 37) -0.1085 ( 39)
 CRD 12=   0.7678 (  3)  0.1062 (  6)  0.1055 ( 10)  0.1058 ( 12)  0.2246 ( 16)
           0.2263 ( 17) -0.1099 ( 18) -0.1080 ( 19) -0.1087 ( 20) -0.1087 ( 21)
          -0.1087 ( 22) -0.1099 ( 23)  0.2253 ( 24)  0.1157 ( 31)  0.1152 ( 35)
           0.1154 ( 37)
 CRD 13=  -0.1929 (  2)  0.1750 (  5) -0.1184 (  6)  0.1079 ( 10) -0.5018 ( 15)
           0.1961 ( 16) -0.2153 ( 17)  0.2325 ( 18) -0.2322 ( 19) -0.1048 ( 20)
          -0.1289 ( 21)  0.1380 ( 22) -0.1917 ( 25)  0.1742 ( 26)  0.1276 ( 28)
          -0.1410 ( 30)  0.1589 ( 33) -0.1612 ( 34) -0.1020 ( 38) -0.1322 ( 52)
          -0.1515 ( 53)  0.1064 ( 54) -0.1491 ( 55)  0.1304 ( 56)  0.1081 ( 57)
          -0.1256 ( 58) -0.1449 ( 59)  0.1141 ( 60) -0.1425 ( 61)
 CRD 14=  -0.2088 ( 43) -0.2088 ( 44) -0.1810 ( 45) -0.1811 ( 46) -0.1810 ( 47)
          -0.1811 ( 48) -0.2087 ( 49) -0.1809 ( 50) -0.1811 ( 51) -0.2088 ( 52)
          -0.1810 ( 53) -0.1810 ( 54) -0.1811 ( 55) -0.1810 ( 56) -0.2088 ( 57)
          -0.2088 ( 58) -0.1810 ( 59) -0.1810 ( 60) -0.1811 ( 61) -0.1810 ( 62)
          -0.2087 ( 63) -0.1811 ( 64) -0.1810 ( 65) -0.2088 ( 66) -0.1809 ( 67)
          -0.1811 ( 68) -0.2087 ( 69)
 CRD 15=  -0.1204 (  7) -0.1468 (  9)  0.2039 ( 13)  0.1977 ( 14)  0.2645 ( 43)
           0.2449 ( 46) -0.2420 ( 47) -0.2401 ( 49) -0.2183 ( 50)  0.2625 ( 51)
          -0.1824 ( 54) -0.1587 ( 56) -0.1804 ( 57)  0.1813 ( 60)  0.1989 ( 62)
           0.2008 ( 63)  0.1903 ( 64) -0.1945 ( 65) -0.1925 ( 66) -0.1708 ( 67)
           0.2079 ( 68)  0.2098 ( 69)
 CRD 16=   0.3997 (  6)  0.3497 (  7)  0.3142 (  8) -0.3122 (  9) -0.3370 ( 10)
          -0.2506 ( 11)  0.1048 ( 16) -0.1238 ( 17) -0.1771 ( 20)  0.1119 ( 21)
           0.1622 ( 22) -0.1470 ( 23)  0.1856 ( 31)  0.1237 ( 32)  0.1410 ( 33)
          -0.1263 ( 34) -0.1570 ( 35)
 CRD 17=   0.1607 (  6)  0.1745 (  8)  0.1667 (  9)  0.2689 ( 10)  0.2540 ( 11)
          -0.4292 ( 12) -0.3259 ( 13) -0.3409 ( 14)  0.1617 ( 18)  0.1732 ( 19)
          -0.1364 ( 21)  0.1245 ( 24)  0.1224 ( 35)  0.1012 ( 36) -0.1950 ( 37)
          -0.1301 ( 38) -0.1367 ( 39)  0.1027 ( 60)  0.1069 ( 62)  0.1005 ( 63)
 CRD 18=  -0.1007 (  2) -0.1008 (  4) -0.1007 (  5) -0.2692 (  6) -0.3024 (  7)
          -0.3023 (  8) -0.3026 (  9) -0.2691 ( 10) -0.3024 ( 11) -0.2695 ( 12)
          -0.3028 ( 13) -0.3027 ( 14)  0.1121 ( 16)  0.1121 ( 17)  0.1014 ( 18)
           0.1015 ( 19)  0.1013 ( 20)  0.1013 ( 21)  0.1014 ( 22)  0.1013 ( 23)
           0.1122 ( 24) -0.1067 ( 31) -0.1049 ( 32) -0.1050 ( 33) -0.1049 ( 34)
          -0.1069 ( 35) -0.1049 ( 36) -0.1070 ( 37) -0.1049 ( 38) -0.1050 ( 39)
 CRD 19=  -0.1580 (  2)  0.1433 (  5) -0.1693 (  7) -0.2838 (  8)  0.1281 (  9)
           0.2827 ( 11) -0.1139 ( 13)  0.1563 ( 14) -0.2410 ( 15) -0.1052 ( 43)
           0.2464 ( 44)  0.2288 ( 45) -0.1350 ( 47)  0.2298 ( 48) -0.1412 ( 49)
          -0.1277 ( 50) -0.1021 ( 51)  0.2071 ( 52)  0.1896 ( 53)  0.1905 ( 55)
          -0.1018 ( 57)  0.2108 ( 58)  0.1933 ( 59)  0.1942 ( 61) -0.1317 ( 65)
          -0.1379 ( 66) -0.1243 ( 67) -0.1060 ( 68) -0.1091 ( 69)
 CRD 20=   0.1946 (  6) -0.2715 (  8)  0.2738 ( 10) -0.2913 ( 11) -0.4790 ( 12)
           0.2082 ( 13)  0.2478 ( 14)  0.1498 ( 32) -0.1392 ( 35)  0.1609 ( 36)
           0.2435 ( 37) -0.1144 ( 38) -0.1359 ( 39) -0.1331 ( 45)  0.1295 ( 48)
          -0.1390 ( 53)  0.1236 ( 55) -0.1263 ( 59)  0.1362 ( 61)
 CRD 21=  -0.4008 (  6)  0.2845 (  7) -0.3084 (  9)  0.3628 ( 10) -0.2777 ( 13)
           0.2381 ( 14)  0.2074 ( 31) -0.1592 ( 33)  0.1707 ( 34) -0.1876 ( 35)
           0.1449 ( 38) -0.1218 ( 39)  0.1248 ( 44) -0.1002 ( 46)  0.1105 ( 47)
           0.1180 ( 51)  0.1275 ( 52)  0.1055 ( 54)  0.1269 ( 58) -0.1054 ( 60)
           0.1128 ( 62)  0.1126 ( 65)  0.1212 ( 68)
 CRD 22=  -0.3847 (  6)  0.1856 (  7)  0.1662 (  8)  0.1604 (  9) -0.3812 ( 10)
           0.1878 ( 11) -0.3765 ( 12)  0.1812 ( 13)  0.1625 ( 14)  0.1956 ( 31)
          -0.1036 ( 33)  0.1937 ( 35) -0.1049 ( 36)  0.1913 ( 37) -0.1013 ( 38)
          -0.1015 ( 45) -0.1037 ( 46) -0.1022 ( 47)  0.1049 ( 48)  0.1067 ( 50)
           0.1073 ( 51) -0.1174 ( 54)  0.1202 ( 55) -0.1168 ( 59)  0.1224 ( 62)
          -0.1188 ( 64)  0.1220 ( 67)
 CRD 23=  -0.3133 (  7)  0.3284 (  8)  0.3221 (  9) -0.3126 ( 11) -0.3145 ( 13)
           0.3256 ( 14) -0.1765 ( 32)  0.1679 ( 33) -0.1730 ( 34)  0.1677 ( 36)
           0.1686 ( 38) -0.1748 ( 39)  0.1256 ( 43)  0.1256 ( 44)  0.1241 ( 49)
           0.1262 ( 52)  0.1237 ( 57)  0.1251 ( 58)  0.1260 ( 63)  0.1247 ( 66)
           0.1250 ( 69)
 CRD 24=  -0.4016 (  7)  0.3126 (  8) -0.3856 (  9)  0.1254 ( 10)  0.2608 ( 11)
          -0.2124 ( 12)  0.1434 ( 13) -0.1743 ( 32)  0.2284 ( 33)  0.2203 ( 34)
          -0.1438 ( 36)  0.1233 ( 37)  0.1149 ( 43)  0.1299 ( 47) -0.1043 ( 49)
          -0.1281 ( 51)  0.1444 ( 54) -0.1430 ( 62)  0.1380 ( 65) -0.1385 ( 68)
           0.1045 ( 69)
 CRD 25=   0.2540 (  6) -0.2292 (  8) -0.1176 (  9) -0.2275 ( 10)  0.2748 ( 11)
          -0.3300 ( 13)  0.3490 ( 14) -0.1550 ( 31)  0.1584 ( 32)  0.1389 ( 35)
          -0.1855 ( 36)  0.2062 ( 38) -0.2206 ( 39) -0.1413 ( 45)  0.1346 ( 46)
          -0.1252 ( 48)  0.1476 ( 50) -0.1569 ( 53) -0.1408 ( 55)  0.1488 ( 56)
          -0.1587 ( 59)  0.1322 ( 60) -0.1426 ( 61)  0.1508 ( 64)  0.1657 ( 67)
 CRD 26=   0.2307 (  4) -0.1323 (  5) -0.2384 (  7) -0.2615 (  9)  0.1288 ( 12)
           0.2562 ( 13)  0.2312 ( 14)  0.1699 ( 18)  0.1913 ( 19) -0.2083 ( 21)
          -0.1926 ( 23)  0.1154 ( 24) -0.1335 ( 27) -0.1044 ( 28)  0.1822 ( 29)
           0.1607 ( 32)  0.1310 ( 35)  0.1689 ( 36) -0.2290 ( 37) -0.1145 ( 38)
          -0.1344 ( 39) -0.1339 ( 40)  0.1482 ( 41) -0.1653 ( 43) -0.1070 ( 46)
           0.1501 ( 49)  0.1005 ( 50) -0.1327 ( 54) -0.1124 ( 56)  0.1176 ( 60)
           0.1327 ( 62)
 CRD 27=   0.4667 (  3) -0.2684 (  6) -0.2679 ( 10) -0.2681 ( 12) -0.1524 ( 16)
          -0.1528 ( 17) -0.1526 ( 24)  0.1599 ( 32)  0.1605 ( 33)  0.1599 ( 34)
           0.1596 ( 36)  0.1597 ( 38)  0.1603 ( 39) -0.1010 ( 52)  0.1758 ( 54)
          -0.1756 ( 55)  0.1008 ( 57)  0.1008 ( 58)  0.1759 ( 59) -0.1758 ( 62)
          -0.1007 ( 63)  0.1756 ( 64) -0.1011 ( 66) -0.1758 ( 67)  0.1010 ( 69)
 CRD 28=   0.1303 (  6)  0.1618 (  7)  0.2575 (  8) -0.1261 (  9) -0.1188 ( 10)
          -0.2545 ( 11) -0.1316 ( 14) -0.2346 ( 15) -0.1451 ( 16)  0.1595 ( 17)
           0.2144 ( 20) -0.1375 ( 21) -0.2056 ( 22)  0.1635 ( 23) -0.1667 ( 25)
           0.1510 ( 26) -0.2266 ( 31) -0.1191 ( 32) -0.1936 ( 33)  0.1921 ( 34)
           0.2056 ( 35)  0.1020 ( 38) -0.1214 ( 42) -0.1097 ( 43)  0.2571 ( 44)
           0.1841 ( 45) -0.1152 ( 47)  0.1856 ( 48) -0.1473 ( 49)
 CRD 29=   0.3201 (  2) -0.1840 (  3)  0.3202 (  4)  0.3197 (  5) -0.1796 (  7)
          -0.1793 (  8) -0.1796 (  9) -0.1792 ( 11) -0.1794 ( 13) -0.1796 ( 14)
          -0.1222 ( 16) -0.1224 ( 17) -0.1570 ( 18) -0.1569 ( 19) -0.1569 ( 20)
          -0.1568 ( 21) -0.1568 ( 22) -0.1569 ( 23) -0.1223 ( 24)  0.2242 ( 31)
           0.1057 ( 32)  0.1055 ( 33)  0.1052 ( 34)  0.2241 ( 35)  0.1055 ( 36)
           0.2242 ( 37)  0.1056 ( 38)  0.1055 ( 39)
 CRD 30=  -0.2355 (  2)  0.5518 (  4) -0.3165 (  5)  0.1646 (  8)  0.1103 ( 10)
           0.1761 ( 11) -0.1927 ( 12) -0.1337 ( 13) -0.1528 ( 14)  0.1045 ( 16)
          -0.1796 ( 18) -0.1760 ( 19)  0.1195 ( 22) -0.1822 ( 24) -0.1611 ( 33)
          -0.1820 ( 34)  0.1583 ( 37)  0.1999 ( 38)  0.1853 ( 39) -0.1064 ( 43)
 CRD 31=  -0.1876 (  3) -0.1767 (  6) -0.1765 ( 10) -0.1766 ( 12)  0.1279 ( 16)
           0.1278 ( 17)  0.1278 ( 24)  0.1001 ( 25) -0.1360 ( 31) -0.1359 ( 35)
          -0.1359 ( 37)  0.1285 ( 45)  0.1280 ( 46)  0.1283 ( 47) -0.1279 ( 48)
          -0.1281 ( 50) -0.1285 ( 51)  0.1326 ( 52)  0.2612 ( 53) -0.2610 ( 56)
          -0.1332 ( 57) -0.1331 ( 58)  0.2609 ( 60) -0.2609 ( 61)  0.1331 ( 63)
           0.2613 ( 65)  0.1326 ( 66) -0.2612 ( 68) -0.1324 ( 69)
 CRD 32=   0.4599 (  2) -0.4172 (  5) -0.1571 (  6) -0.1530 (  7)  0.1740 (  9)
           0.1425 ( 10)  0.1956 ( 13) -0.1818 ( 14) -0.1328 ( 15)  0.1032 ( 16)
          -0.1139 ( 17) -0.1131 ( 20)  0.1079 ( 21)  0.1017 ( 22) -0.1177 ( 23)
          -0.1023 ( 25)  0.1994 ( 32) -0.2078 ( 36)  0.1311 ( 38) -0.1567 ( 39)
          -0.1036 ( 43)  0.2429 ( 44) -0.1392 ( 49)  0.1049 ( 52)  0.1031 ( 58)
 CRD 33=   0.2306 (  7) -0.2309 (  8) -0.2311 (  9)  0.2314 ( 11)  0.2312 ( 13)
          -0.2308 ( 14) -0.1772 ( 32)  0.1769 ( 33) -0.1772 ( 34)  0.1775 ( 36)
           0.1774 ( 38) -0.1771 ( 39)  0.1514 ( 43)  0.1515 ( 44) -0.1131 ( 45)
          -0.1134 ( 46) -0.1132 ( 47) -0.1136 ( 48)  0.1516 ( 49) -0.1137 ( 50)
          -0.1130 ( 51)  0.1516 ( 52) -0.1130 ( 53) -0.1131 ( 54) -0.1135 ( 55)
          -0.1136 ( 56)  0.1517 ( 57)  0.1515 ( 58) -0.1131 ( 59) -0.1135 ( 60)
          -0.1136 ( 61) -0.1131 ( 62)  0.1513 ( 63) -0.1135 ( 64) -0.1131 ( 65)
           0.1517 ( 66) -0.1136 ( 67) -0.1131 ( 68)  0.1513 ( 69)
 CRD 34=   0.1347 (  6)  0.1033 (  7) -0.2225 (  8)  0.1609 ( 10) -0.2228 ( 11)
          -0.2949 ( 12)  0.1191 ( 13)  0.1415 ( 14)  0.1042 ( 20)  0.1041 ( 22)
           0.1013 ( 24)  0.1342 ( 29) -0.1807 ( 32)  0.1157 ( 35) -0.1833 ( 36)
          -0.2121 ( 37)  0.1155 ( 38)  0.1325 ( 39)  0.1841 ( 45) -0.1754 ( 46)
          -0.1719 ( 48)  0.1853 ( 50)  0.1480 ( 53) -0.2081 ( 55)  0.1687 ( 56)
          -0.1073 ( 57)  0.2203 ( 59) -0.1625 ( 60) -0.1358 ( 61)  0.1108 ( 63)
          -0.1950 ( 64)  0.2084 ( 67)
 CRD 35=  -0.2870 (  6)  0.1942 (  7) -0.1976 (  9)  0.2690 ( 10) -0.1519 ( 13)
           0.1354 ( 14)  0.1000 ( 17) -0.1003 ( 28)  0.1064 ( 30) -0.2077 ( 31)
           0.1709 ( 33) -0.1722 ( 34)  0.1945 ( 35) -0.1174 ( 38)  0.1020 ( 39)
           0.1299 ( 46) -0.2151 ( 47)  0.1070 ( 48)  0.1105 ( 50) -0.2175 ( 51)
          -0.2481 ( 54)  0.1192 ( 55)  0.1161 ( 61) -0.2508 ( 62)  0.1539 ( 64)
          -0.1942 ( 65)  0.1315 ( 67) -0.1935 ( 68)
 CRD 36=   0.1648 (  4)  0.2429 (  7) -0.1509 (  8)  0.2401 (  9) -0.1040 ( 10)
          -0.1172 ( 11)  0.1826 ( 12) -0.1255 ( 13)  0.1061 ( 20) -0.1183 ( 21)
          -0.1256 ( 23) -0.1072 ( 24)  0.1335 ( 29) -0.1226 ( 32)  0.1745 ( 33)
           0.1695 ( 34)  0.1677 ( 37)  0.1052 ( 41)  0.1153 ( 43) -0.1134 ( 45)
           0.1862 ( 47)  0.1361 ( 48) -0.1043 ( 49) -0.1799 ( 51) -0.1619 ( 53)
          -0.1017 ( 56) -0.2501 ( 57)  0.1594 ( 61)  0.2685 ( 63) -0.2092 ( 66)
           0.2378 ( 69)
 CRD 37=  -0.2306 (  2)  0.2095 (  5) -0.1113 (  6)  0.1654 (  8)  0.1011 ( 10)
          -0.1868 ( 11)  0.1926 ( 13) -0.2069 ( 14)  0.1435 ( 18) -0.1423 ( 19)
           0.1193 ( 25) -0.1081 ( 26)  0.1371 ( 28) -0.1511 ( 30) -0.1216 ( 31)
           0.1105 ( 35) -0.1123 ( 36)  0.1481 ( 38) -0.1530 ( 39)  0.1516 ( 42)
          -0.2090 ( 45)  0.1706 ( 46) -0.1940 ( 48)  0.1921 ( 50)  0.2688 ( 52)
           0.1060 ( 56) -0.1189 ( 57)  0.2760 ( 58)  0.1196 ( 60) -0.1211 ( 65)
          -0.1924 ( 66) -0.1310 ( 68) -0.1573 ( 69)
 CRD 38=  -0.5306 ( 15)  0.3233 ( 25) -0.2933 ( 26) -0.3157 ( 28)  0.3483 ( 30)
          -0.1512 ( 42) -0.1045 ( 44) -0.1432 ( 45)  0.1102 ( 47) -0.1486 ( 48)
          -0.1385 ( 56) -0.1357 ( 57) -0.1433 ( 60) -0.1316 ( 63)  0.1031 ( 68)
 CRD 39=   0.5775 ( 40)  0.5772 ( 41)  0.5774 ( 42)

 THE DETERMINANT OF THE G MATRIX IS 10**(   -13)


                     --------------------
                     INTERNAL COORDINATES
                     --------------------

                 - - ATOMS - -         COORDINATE      COORDINATE
 NO.   TYPE    I  J  K  L  M  N        (BOHR,RAD)       (ANG,DEG)
 ----------------------------------------------------------------
   1 STRETCH   1  3                     3.5904794       1.9000000
   2 STRETCH   2  4                     3.3538460       1.7747790
   3 STRETCH   2  3                     3.3196218       1.7566683
   4 STRETCH   2  6                     3.3539733       1.7748464
   5 STRETCH   2  5                     3.3538992       1.7748072
   6 STRETCH   4  8                     2.0679643       1.0943196
   7 STRETCH   4  7                     2.0574453       1.0887532
   8 STRETCH   4  9                     2.0572881       1.0886701
   9 STRETCH   5 12                     2.0573449       1.0887001
  10 STRETCH   5 11                     2.0679960       1.0943364
  11 STRETCH   5 10                     2.0573635       1.0887099
  12 STRETCH   6 15                     2.0678311       1.0942492
  13 STRETCH   6 14                     2.0574193       1.0887395
  14 STRETCH   6 13                     2.0574658       1.0887641
  15 BEND      1  3  2                  3.1407285     179.9504864
  16 BEND      2  5 11                  1.8647629     106.8430437
  17 BEND      2  4  8                  1.8654887     106.8846315
  18 BEND      2  6 13                  1.9363405     110.9441357
  19 BEND      2  6 14                  1.9367673     110.9685932
  20 BEND      2  4  9                  1.9363663     110.9456164
  21 BEND      2  5 12                  1.9367468     110.9674169
  22 BEND      2  5 10                  1.9366586     110.9623649
  23 BEND      2  4  7                  1.9362777     110.9405404
  24 BEND      2  6 15                  1.8648449     106.8477426
  25 BEND      3  2  4                  1.8625915     106.7186329
  26 BEND      3  2  5                  1.8629232     106.7376352
  27 BEND      3  2  6                  1.8629692     106.7402727
  28 BEND      4  2  6                  1.9560829     112.0752918
  29 BEND      4  2  5                  1.9558860     112.0640120
  30 BEND      5  2  6                  1.9557846     112.0582053
  31 BEND      7  4  9                  1.9373963     111.0046285
  32 BEND      7  4  8                  1.8926647     108.4417006
  33 BEND      8  4  9                  1.8931684     108.4705596
  34 BEND     10  5 11                  1.8926604     108.4414529
  35 BEND     10  5 12                  1.9375674     111.0144323
  36 BEND     11  5 12                  1.8929064     108.4555452
  37 BEND     13  6 14                  1.9376724     111.0204481
  38 BEND     13  6 15                  1.8928290     108.4511126
  39 BEND     14  6 15                  1.8928573     108.4527372
  40 TORSION   1  3  2  5               0.6078242      34.8257610
  41 TORSION   1  3  2  4               2.7021086     154.8194186
  42 TORSION   1  3  2  6              -1.4865386     -85.1723900
  43 TORSION   3  2  4  8              -3.1397635    -179.8951976
  44 TORSION   3  2  6 15               3.1406228     179.9444323
  45 TORSION   3  2  6 14              -1.0822197     -62.0066193
  46 TORSION   3  2  4  7              -1.0795371     -61.8529181
  47 TORSION   3  2  5 10              -1.0836507     -62.0886112
  48 TORSION   3  2  6 13               1.0805476      61.9108182
  49 TORSION   3  2  5 11               3.1395369     179.8822159
  50 TORSION   3  2  5 12               1.0791952      61.8333328
  51 TORSION   3  2  4  9               1.0825410      62.0250294
  52 TORSION   4  2  6 15              -1.1093065     -63.5585802
  53 TORSION   4  2  6 14               0.9510363      54.4903681
  54 TORSION   4  2  5 10              -3.1167730    -178.5779384
  55 TORSION   4  2  6 13               3.1138036     178.4078057
  56 TORSION   4  2  5 12              -0.9539271     -54.6559945
  57 TORSION   4  2  5 11               1.1064146      63.3928887
  58 TORSION   5  2  6 15               1.1071274      63.4337280
  59 TORSION   5  2  6 14              -3.1157151    -178.5173236
  60 TORSION   5  2  4  7               0.9537852      54.6478664
  61 TORSION   5  2  6 13              -0.9529478     -54.5998861
  62 TORSION   5  2  4  9               3.1158633     178.5258139
  63 TORSION   5  2  4  8              -1.1064412     -63.3944130
  64 TORSION   6  2  4  7              -3.1130207    -178.3629494
  65 TORSION   6  2  5 10               0.9498725      54.4236833
  66 TORSION   6  2  5 11              -1.1101252     -63.6054896
  67 TORSION   6  2  5 12               3.1127184     178.3456273
  68 TORSION   6  2  4  9              -0.9509427     -54.4850018
  69 TORSION   6  2  4  8               1.1099381      63.5947712

     ------------------------------------------
     THE POINT GROUP IS C1 , NAXIS= 0, ORDER= 1
     ------------------------------------------

 -- VARIATIONAL SPACE WILL BE RESTRICTED TO PURE SPHERICAL HARMONICS ONLY --
 AFTER EXCLUDING CONTAMINANT COMBINATIONS FROM THE CARTESIAN GAUSSIAN BASIS
 SET, THE NUMBER OF SPHERICAL HARMONICS KEPT IN THE VARIATION SPACE IS  316

     DIMENSIONS OF THE SYMMETRY SUBSPACES ARE
 A   =  316

 ..... DONE SETTING UP THE RUN .....
 CPU     0: STEP CPU TIME=     0.09 TOTAL CPU TIME=        0.1 (    0.0 MIN)
 TOTAL WALL CLOCK TIME=        0.2 SECONDS, CPU UTILIZATION IS  52.94%


          -----------------------------
          STATIONARY POINT LOCATION RUN
          -----------------------------


           ** GEOMETRY CONSTRAINTS ARE BEING APPLIED. **

          TRANSFORMING DISPLACEMENT FROM INTERNALS TO CARTESIANS
          THE ROOT MEAN SQUARE ERROR IN ITERATION   1 IS   0.00000000
 WARNING! THE RADIUS IN CARTESIANS IS    0.00000
 OBTAINING INITIAL HESSIAN, HESS=GUESS   
 DIAGONAL GUESS HESSIAN IN INTERNAL COORDS IS
     1  0.8637     2  0.4333     3  0.3624     4  0.4333     5  0.4333
     6  0.3435     7  0.3472     8  0.3473     9  0.3472    10  0.3435
    11  0.3472    12  0.3435    13  0.3472    14  0.3472    15  0.3328
    16  0.2409    17  0.2409    18  0.2412    19  0.2412    20  0.2412
    21  0.2412    22  0.2412    23  0.2412    24  0.2409    25  0.2785
    26  0.2785    27  0.2785    28  0.2914    29  0.2914    30  0.2914
    31  0.2035    32  0.2032    33  0.2033    34  0.2032    35  0.2035
    36  0.2032    37  0.2035    38  0.2032    39  0.2033    40  0.2500
    41  0.2500    42  0.2500    43  0.2500    44  0.2500    45  0.2500
    46  0.2500    47  0.2500    48  0.2500    49  0.2500    50  0.2500
    51  0.2500    52  0.2500    53  0.2500    54  0.2500    55  0.2500
    56  0.2500    57  0.2500    58  0.2500    59  0.2500    60  0.2500
    61  0.2500    62  0.2500    63  0.2500    64  0.2500    65  0.2500
    66  0.2500    67  0.2500    68  0.2500    69  0.2500
 TRANSFORMING HESSIAN TO SYMMETRY COORDINATES

          PARAMETERS CONTROLLING GEOMETRY SEARCH ARE
          METHOD =QA                  UPHESS =BFGS    
          NNEG   =         0          NFRZ   =         0
          NSTEP  =        50          IFOLOW =         1
          HESS   =GUESS               RESTAR =         F
          IHREP  =         0          HSSEND =         F
          NPRT   =         0          NPUN   =         0
          OPTTOL = 1.000E-04          RMIN   = 1.500E-03
          RMAX   = 1.000E-01          RLIM   = 7.000E-02
          DXMAX  = 3.000E-01          PURIFY =         F
          MOVIE  =         F          TRUPD  =         T
          TRMAX  = 5.000E-01          TRMIN  = 5.000E-02
          ITBMAT =         5          STPT   =         F
          STSTEP = 1.000E-02          PROJCT=          T

 BEGINNING GEOMETRY SEARCH POINT NSERCH=   0 ...

 COORDINATES OF ALL ATOMS ARE (ANGS)
   ATOM   CHARGE       X              Y              Z
 ------------------------------------------------------------
 LA         57.0  -0.1739353441   1.1341682690  -4.0490164368
 P          15.0  -0.0469013667   0.3344641231  -0.4831285373
 O           8.0  -0.1087138897   0.7187050430  -2.1961439453
 C           6.0  -1.4963932628   1.0469198869   0.2525483381
 C           6.0   1.4456255891   1.0572087564   0.1492826503
 C           6.0  -0.0359713873  -1.4358159248  -0.3563657841
 H           1.0  -1.4981419296   2.1297529579   0.1391769401
 H           1.0  -1.4596606665   0.8107171093   1.3204408620
 H           1.0  -2.4007878516   0.6092147529  -0.1666021769
 H           1.0   2.3216940777   0.6252416542  -0.3315476315
 H           1.0   1.4848113884   0.8206468853   1.2170256742
 H           1.0   1.4323884479   2.1399624312   0.0364236476
 H           1.0   0.8462191124  -1.8550072700  -0.8374330896
 H           1.0  -0.9473528890  -1.8618624128  -0.7725649888
 H           1.0   0.0035388014  -1.6771627493   0.7102043698


                     --------------------
                     INTERNAL COORDINATES
                     --------------------

                 - - ATOMS - -         COORDINATE      COORDINATE
 NO.   TYPE    I  J  K  L  M  N        (BOHR,RAD)       (ANG,DEG)
 ----------------------------------------------------------------
   1 STRETCH   1  3                     3.5904794       1.9000000
   2 STRETCH   2  4                     3.3538460       1.7747790
   3 STRETCH   2  3                     3.3196218       1.7566683
   4 STRETCH   2  6                     3.3539733       1.7748464
   5 STRETCH   2  5                     3.3538992       1.7748072
   6 STRETCH   4  8                     2.0679643       1.0943196
   7 STRETCH   4  7                     2.0574453       1.0887532
   8 STRETCH   4  9                     2.0572881       1.0886701
   9 STRETCH   5 12                     2.0573449       1.0887001
  10 STRETCH   5 11                     2.0679960       1.0943364
  11 STRETCH   5 10                     2.0573635       1.0887099
  12 STRETCH   6 15                     2.0678311       1.0942492
  13 STRETCH   6 14                     2.0574193       1.0887395
  14 STRETCH   6 13                     2.0574658       1.0887641
  15 BEND      1  3  2                  3.1407285     179.9504864
  16 BEND      2  5 11                  1.8647629     106.8430437
  17 BEND      2  4  8                  1.8654887     106.8846315
  18 BEND      2  6 13                  1.9363405     110.9441357
  19 BEND      2  6 14                  1.9367673     110.9685932
  20 BEND      2  4  9                  1.9363663     110.9456164
  21 BEND      2  5 12                  1.9367468     110.9674169
  22 BEND      2  5 10                  1.9366586     110.9623649
  23 BEND      2  4  7                  1.9362777     110.9405404
  24 BEND      2  6 15                  1.8648449     106.8477426
  25 BEND      3  2  4                  1.8625915     106.7186329
  26 BEND      3  2  5                  1.8629232     106.7376352
  27 BEND      3  2  6                  1.8629692     106.7402727
  28 BEND      4  2  6                  1.9560829     112.0752918
  29 BEND      4  2  5                  1.9558860     112.0640120
  30 BEND      5  2  6                  1.9557846     112.0582053
  31 BEND      7  4  9                  1.9373963     111.0046285
  32 BEND      7  4  8                  1.8926647     108.4417006
  33 BEND      8  4  9                  1.8931684     108.4705596
  34 BEND     10  5 11                  1.8926604     108.4414529
  35 BEND     10  5 12                  1.9375674     111.0144323
  36 BEND     11  5 12                  1.8929064     108.4555452
  37 BEND     13  6 14                  1.9376724     111.0204481
  38 BEND     13  6 15                  1.8928290     108.4511126
  39 BEND     14  6 15                  1.8928573     108.4527372
  40 TORSION   1  3  2  5               0.6078242      34.8257610
  41 TORSION   1  3  2  4               2.7021086     154.8194186
  42 TORSION   1  3  2  6              -1.4865386     -85.1723900
  43 TORSION   3  2  4  8              -3.1397635    -179.8951976
  44 TORSION   3  2  6 15               3.1406228     179.9444323
  45 TORSION   3  2  6 14              -1.0822197     -62.0066193
  46 TORSION   3  2  4  7              -1.0795371     -61.8529181
  47 TORSION   3  2  5 10              -1.0836507     -62.0886112
  48 TORSION   3  2  6 13               1.0805476      61.9108182
  49 TORSION   3  2  5 11               3.1395369     179.8822159
  50 TORSION   3  2  5 12               1.0791952      61.8333328
  51 TORSION   3  2  4  9               1.0825410      62.0250294
  52 TORSION   4  2  6 15              -1.1093065     -63.5585802
  53 TORSION   4  2  6 14               0.9510363      54.4903681
  54 TORSION   4  2  5 10              -3.1167730    -178.5779384
  55 TORSION   4  2  6 13               3.1138036     178.4078057
  56 TORSION   4  2  5 12              -0.9539271     -54.6559945
  57 TORSION   4  2  5 11               1.1064146      63.3928887
  58 TORSION   5  2  6 15               1.1071274      63.4337280
  59 TORSION   5  2  6 14              -3.1157151    -178.5173236
  60 TORSION   5  2  4  7               0.9537852      54.6478664
  61 TORSION   5  2  6 13              -0.9529478     -54.5998861
  62 TORSION   5  2  4  9               3.1158633     178.5258139
  63 TORSION   5  2  4  8              -1.1064412     -63.3944130
  64 TORSION   6  2  4  7              -3.1130207    -178.3629494
  65 TORSION   6  2  5 10               0.9498725      54.4236833
  66 TORSION   6  2  5 11              -1.1101252     -63.6054896
  67 TORSION   6  2  5 12               3.1127184     178.3456273
  68 TORSION   6  2  4  9              -0.9509427     -54.4850018
  69 TORSION   6  2  4  8               1.1099381      63.5947712

          ********************
          1 ELECTRON INTEGRALS
          ********************
 TIME TO DO ORDINARY INTEGRALS=      0.01
 TIME TO DO      ECP INTEGRALS=      0.06
 ...... END OF ONE-ELECTRON INTEGRALS ......
 CPU     0: STEP CPU TIME=     0.08 TOTAL CPU TIME=        0.2 (    0.0 MIN)
 TOTAL WALL CLOCK TIME=        0.3 SECONDS, CPU UTILIZATION IS  56.67%

          -------------
          GUESS OPTIONS
          -------------
          GUESS =HUCKEL            NORB  =       0          NORDER=       0
          MIX   =       F          PRTMO =       F          PUNMO =       F
          TOLZ  = 1.0E-08          TOLE  = 1.0E-05
          SYMDEN=       F          PURIFY=       F

 INITIAL GUESS ORBITALS GENERATED BY HUCKEL   ROUTINE.
 HUCKEL GUESS REQUIRES    916545 WORDS.

 STATISTICS FOR GENERATION OF SYMMETRY ORBITAL -Q- MATRIX
 NUMBER OF CARTESIAN ATOMIC ORBITALS=        354
 NUMBER OF SPHERICAL CONTAMINANTS DROPPED=    38
 NUMBER OF LINEARLY DEPENDENT MOS DROPPED=     0
 TOTAL NUMBER OF MOS IN VARIATION SPACE=     316

 SYMMETRIES FOR INITIAL GUESS ORBITALS FOLLOW.   BOTH SET(S).
    29 ORBITALS ARE OCCUPIED (   13 CORE ORBITALS).
    14=A       15=A       16=A       17=A       18=A       19=A       20=A   
    21=A       22=A       23=A       24=A       25=A       26=A       27=A   
    28=A       29=A       30=A       31=A       32=A       33=A       34=A   
    35=A       36=A       37=A       38=A       39=A   
 ...... END OF INITIAL ORBITAL SELECTION ......
 CPU     0: STEP CPU TIME=     0.19 TOTAL CPU TIME=        0.4 (    0.0 MIN)
 TOTAL WALL CLOCK TIME=        0.8 SECONDS, CPU UTILIZATION IS  45.57%

                    ----------------------
                    AO INTEGRAL TECHNOLOGY
                    ----------------------
     S,P,L SHELL ROTATED AXIS INTEGRALS, REPROGRAMMED BY
        KAZUYA ISHIMURA (IMS) AND JOSE SIERRA (SYNSTAR).
     S,P,D,L SHELL ROTATED AXIS INTEGRALS PROGRAMMED BY
        KAZUYA ISHIMURA (INSTITUTE FOR MOLECULAR SCIENCE).
     S,P,D,F,G SHELL TO TOTAL QUARTET ANGULAR MOMENTUM SUM 5,
        ERIC PROGRAM BY GRAHAM FLETCHER (ELORET AND NASA ADVANCED
        SUPERCOMPUTING DIVISION, AMES RESEARCH CENTER).
     S,P,D,F,G,L SHELL GENERAL RYS QUADRATURE PROGRAMMED BY
        MICHEL DUPUIS (PACIFIC NORTHWEST NATIONAL LABORATORY).

          --------------------
          2 ELECTRON INTEGRALS
          --------------------

 DIRECT SCF METHOD SKIPS INTEGRAL STORAGE ON DISK.
 DIRECT TRANSFORMATION SKIPS AO INTEGRAL STORAGE ON DISK.
  ...... END OF TWO-ELECTRON INTEGRALS .....
 CPU     0: STEP CPU TIME=     0.01 TOTAL CPU TIME=        0.4 (    0.0 MIN)
 TOTAL WALL CLOCK TIME=        0.8 SECONDS, CPU UTILIZATION IS  46.25%

          --------------------------
                 RHF SCF CALCULATION
          --------------------------

     NUCLEAR ENERGY =       337.0930495655
     MAXIT =  200     NPUNCH=    2
     EXTRAP=T  DAMP=F  SHIFT=F  RSTRCT=F  DIIS=F  DEM=F  SOSCF=T
     DENSITY MATRIX CONV=  2.00E-06
     SOSCF WILL OPTIMIZE    8323 ORBITAL ROTATIONS, SOGTOL=   0.250
     MEMORY REQUIRED FOR RHF ITERS=    982670 WORDS.

 DIRECT SCF CALCULATION, SCHWRZ=T   FDIFF=F,  DIRTHR=  0.00E+00 NITDIR=10
 SCHWARZ INEQUALITY OVERHEAD:     62190 INTEGRALS, T=        0.00

                                                                                   NONZERO     BLOCKS
 ITER EX DEM     TOTAL ENERGY        E CHANGE  DENSITY CHANGE     ORB. GRAD      INTEGRALS    SKIPPED
   1  0  0     -563.2484249922  -563.2484249922   0.389370076   0.000000000     1463151213    4163426
          ---------------START SECOND ORDER SCF---------------
   2  1  0     -564.4039258765    -1.1555008843   0.204346940   0.117096415     1451959776    4450948
   3  2  0     -564.5528232254    -0.1488973489   0.094206739   0.087082165     1450638843    4481716
   4  3  0     -564.7000787652    -0.1472555398   0.023763811   0.017149416     1451083836    4464531
   5  4  0     -564.7035344845    -0.0034557194   0.008427908   0.005532446     1451428425    4457127
   6  5  0     -564.7043162512    -0.0007817667   0.003844004   0.001932963     1451281877    4458642
   7  6  0     -564.7043956810    -0.0000794298   0.001525726   0.000512845     1451227066    4459623
   8  7  0     -564.7044051660    -0.0000094850   0.000406250   0.000167523     1451220735    4459719
   9  8  0     -564.7044064751    -0.0000013091   0.000181024   0.000069799     1451224644    4459599
  10  9  0     -564.7044066848    -0.0000002098   0.000077219   0.000028775     1451229536    4459585
  11 10  0     -564.7044067168    -0.0000000320   0.000031556   0.000008175     1451231420    4459579
  12 11  0     -564.7044067213    -0.0000000045   0.000012489   0.000002861     1451231659    4459577
  13 12  0     -564.7044067218    -0.0000000005   0.000004926   0.000000691     1451231713    4459577
  14 13  0     -564.7044067219    -0.0000000001   0.000001706   0.000000241     1451231933    4459573
  15 14  0     -564.7044067219    -0.0000000000   0.000000518   0.000000108     1451231912    4459575

          -----------------
          DENSITY CONVERGED
          -----------------
     TIME TO FORM FOCK OPERATORS=      98.4 SECONDS (       6.6 SEC/ITER)
     FOCK TIME ON FIRST ITERATION=       6.6, LAST ITERATION=       6.6
     TIME TO SOLVE SCF EQUATIONS=       0.5 SECONDS (       0.0 SEC/ITER)

 FINAL RHF ENERGY IS     -564.7044067219 AFTER  15 ITERATIONS

          ------------
          EIGENVECTORS
          ------------

                      1          2          3          4          5
                  -80.4979   -21.0748   -11.6519   -11.6519   -11.6519
                     A          A          A          A          A   
    1  LA 1  S    0.000004   0.000001   0.000001   0.000004   0.000005
    2  LA 1  X    0.000000   0.000001  -0.000010  -0.000009   0.000009
    3  LA 1  Y   -0.000001  -0.000006  -0.000013   0.000007  -0.000006
    4  LA 1  Z    0.000004   0.000028  -0.000002   0.000008   0.000005
    5  LA 1 XX    0.000004  -0.000030   0.000011  -0.000005   0.000004
    6  LA 1 YY    0.000004  -0.000026  -0.000014   0.000010  -0.000005
    7  LA 1 ZZ   -0.000008   0.000056   0.000003  -0.000005   0.000000
    8  LA 1 XY    0.000000  -0.000001   0.000007   0.000006  -0.000006
    9  LA 1 XZ   -0.000001   0.000003   0.000010   0.000011  -0.000010
   10  LA 1 YZ    0.000003  -0.000023   0.000008  -0.000005   0.000004
   11  LA 1 XX    0.000001   0.000098  -0.000016   0.000041   0.000029
   12  LA 1 YY    0.000001   0.000084   0.000029   0.000008   0.000041
   13  LA 1 ZZ   -0.000002  -0.000181  -0.000013  -0.000050  -0.000069
   14  LA 1 XY    0.000000   0.000003  -0.000015  -0.000013   0.000015
   15  LA 1 XZ   -0.000000  -0.000011  -0.000015  -0.000018   0.000010
   16  LA 1 YZ    0.000001   0.000072  -0.000004   0.000027   0.000023
   17  LA 1  S   -0.000012  -0.000171  -0.000026  -0.000149  -0.000185
   18  LA 1  X    0.000000  -0.000004  -0.000018  -0.000018   0.000014
   19  LA 1  Y   -0.000001   0.000028  -0.000021   0.000024   0.000002
   20  LA 1  Z    0.000002  -0.000127  -0.000011  -0.000035  -0.000051
   21  LA 1  S    0.000006   0.000066   0.000041   0.000236   0.000292
   22  LA 1  X   -0.000000   0.000002   0.000040   0.000045  -0.000028
   23  LA 1  Y    0.000000  -0.000012   0.000044  -0.000075  -0.000032
   24  LA 1  Z   -0.000001   0.000054   0.000043   0.000177   0.000236
   25  LA 1  S   -0.000030  -0.000084  -0.000006  -0.000035  -0.000044
   26  LA 1  X   -0.000001  -0.000006   0.000019   0.000017  -0.000020
   27  LA 1  Y    0.000007   0.000038   0.000027  -0.000005   0.000024
   28  LA 1  Z   -0.000033  -0.000170  -0.000004  -0.000057  -0.000062
   29  LA 1 XX   -0.000001  -0.000021   0.000010  -0.000064  -0.000063
   30  LA 1 YY   -0.000001  -0.000018  -0.000041  -0.000026  -0.000071
   31  LA 1 ZZ    0.000001   0.000039   0.000031   0.000090   0.000133
   32  LA 1 XY   -0.000000  -0.000001   0.000009   0.000005  -0.000009
   33  LA 1 XZ    0.000000   0.000002   0.000035   0.000040  -0.000024
   34  LA 1 YZ   -0.000001  -0.000016   0.000027  -0.000063  -0.000036
   35  P  2  S    1.000137   0.000075   0.000017   0.000094   0.000116
   36  P  2  S    0.000171   0.000465   0.000117   0.000664   0.000823
   37  P  2  S    0.000186   0.000606   0.000180   0.001021   0.001265
   38  P  2  S   -0.000943  -0.000198  -0.000061  -0.000344  -0.000426
   39  P  2  S   -0.000348  -0.002389   0.000047   0.000261   0.000324
   40  P  2  X   -0.000003  -0.000004   0.000383   0.000375  -0.000346
   41  P  2  Y    0.000021   0.000028   0.000491  -0.000358   0.000148
   42  P  2  Z   -0.000092  -0.000123   0.000125   0.000068   0.000246
   43  P  2  X   -0.000003  -0.000012   0.000997   0.000975  -0.000900
   44  P  2  Y    0.000019   0.000074   0.001278  -0.000928   0.000390
   45  P  2  Z   -0.000085  -0.000332   0.000321   0.000160   0.000618
   46  P  2  X    0.000002   0.000005  -0.000053  -0.000052   0.000047
   47  P  2  Y   -0.000011  -0.000030  -0.000067   0.000052  -0.000017
   48  P  2  Z    0.000047   0.000134  -0.000019  -0.000021  -0.000048
   49  P  2  X   -0.000003   0.000045   0.000025   0.000035  -0.000009
   50  P  2  Y    0.000020  -0.000281   0.000020  -0.000086  -0.000069
   51  P  2  Z   -0.000088   0.001247   0.000060   0.000290   0.000369
   52  P  2 XX   -0.000004  -0.000065   0.000210  -0.000084   0.000118
   53  P  2 YY   -0.000003  -0.000056  -0.000222   0.000184  -0.000049
   54  P  2 ZZ    0.000007   0.000121   0.000012  -0.000100  -0.000069
   55  P  2 XY   -0.000000  -0.000002   0.000152   0.000143  -0.000135
   56  P  2 XZ    0.000000   0.000008   0.000111   0.000116  -0.000119
   57  P  2 YZ   -0.000003  -0.000048   0.000053  -0.000011   0.000060
   58  P  2 XX   -0.000029  -0.000082   0.000355   0.000008   0.000326
   59  P  2 YY   -0.000025  -0.000071  -0.000411   0.000449   0.000026
   60  P  2 ZZ    0.000055   0.000153   0.000056  -0.000456  -0.000351
   61  P  2 XY   -0.000001  -0.000002   0.000200   0.000177  -0.000162
   62  P  2 XZ    0.000004   0.000010   0.000348   0.000334  -0.000364
   63  P  2 YZ   -0.000022  -0.000061   0.000321  -0.000066   0.000291
   64  P  2 XXX   0.000001   0.000012   0.000032   0.000032  -0.000021
   65  P  2 YYY  -0.000006   0.000022   0.000026  -0.000098  -0.000076
   66  P  2 ZZZ  -0.000014  -0.000208  -0.000042  -0.000037  -0.000094
   67  P  2 XXY  -0.000002  -0.000171   0.000025   0.000055   0.000079
   68  P  2 XXZ   0.000011   0.000129   0.000030   0.000044   0.000092
   69  P  2 YYX   0.000000   0.000004   0.000004   0.000004  -0.000001
   70  P  2 YYZ   0.000008   0.000151   0.000026   0.000006   0.000034
   71  P  2 ZZX  -0.000001  -0.000019  -0.000047  -0.000047   0.000029
   72  P  2 ZZY   0.000009   0.000141  -0.000060   0.000077   0.000022
   73  P  2 XYZ   0.000000   0.000013   0.000029   0.000032  -0.000032
   74  P  2 XX    0.000001   0.000023  -0.000006   0.000004  -0.000002
   75  P  2 YY    0.000001   0.000020   0.000007  -0.000004   0.000003
   76  P  2 ZZ   -0.000002  -0.000043  -0.000001  -0.000000  -0.000002
   77  P  2 XY    0.000000   0.000001  -0.000005  -0.000005   0.000004
   78  P  2 XZ   -0.000000  -0.000003  -0.000003  -0.000003   0.000003
   79  P  2 YZ    0.000001   0.000017  -0.000001   0.000001   0.000000
   80  O  3  S    0.000000   0.975596   0.000005   0.000027   0.000033
   81  O  3  S    0.000001  -0.001083   0.000007   0.000039   0.000048
   82  O  3  S    0.000005   0.043455  -0.000002  -0.000012  -0.000015
   83  O  3  S   -0.000073   0.004762   0.000031   0.000171   0.000211
   84  O  3  X    0.000000   0.000018  -0.000006  -0.000006   0.000004
   85  O  3  Y   -0.000000  -0.000111  -0.000007   0.000008   0.000001
   86  O  3  Z    0.000001   0.000496  -0.000004  -0.000012  -0.000018
   87  O  3  X   -0.000000  -0.000023   0.000017   0.000018  -0.000014
   88  O  3  Y    0.000003   0.000144   0.000020  -0.000024  -0.000004
   89  O  3  Z   -0.000014  -0.000644   0.000012   0.000040   0.000057
[...]
            143  C  4 XXY     0.00126     0.07661
            144  C  4 XXZ     0.00083     0.07718
            145  C  4 YYX     0.00083     0.06918
            146  C  4 YYZ     0.00139     0.06647
            147  C  4 ZZX     0.00000     0.06898
            148  C  4 ZZY     0.00000     0.06660
            149  C  4 XYZ     0.00000     0.00296
            150  C  5  S      1.95557     1.55564
            151  C  5  S      0.82830     0.43083
            152  C  5  S      0.16175     0.27793
            153  C  5  S      0.33058     0.14768
            154  C  5  X      0.27102     0.20982
            155  C  5  Y      0.29474     0.22654
            156  C  5  Z      0.29391     0.22606
            157  C  5  X      0.51189     0.26489
            158  C  5  Y      0.53909     0.27972
            159  C  5  Z      0.53891     0.28054
            160  C  5  X      0.13025     0.18191
            161  C  5  Y      0.18638     0.20137
            162  C  5  Z      0.23510     0.20908
            163  C  5 XX      0.00520     0.08561
            164  C  5 YY      0.00520     0.08688
            165  C  5 ZZ      0.00432     0.08553
            166  C  5 XY      0.00412     0.00478
            167  C  5 XZ      0.00336     0.00446
            168  C  5 YZ      0.00000     0.00376
            169  C  5 XX      0.00810     0.09189
            170  C  5 YY      0.01279     0.09010
            171  C  5 ZZ      0.01176     0.08452
            172  C  5 XY      0.01020     0.02731
            173  C  5 XZ      0.00823     0.02424
            174  C  5 YZ      0.00000     0.01531
            175  C  5 XXX     0.00092     0.15903
            176  C  5 YYY     0.00072     0.17171
            177  C  5 ZZZ     0.00082     0.16829
            178  C  5 XXY     0.00124     0.07686
            179  C  5 XXZ     0.00088     0.07834
            180  C  5 YYX     0.00078     0.06903
            181  C  5 YYZ     0.00140     0.06676
            182  C  5 ZZX     0.00000     0.06936
            183  C  5 ZZY     0.00000     0.06646
            184  C  5 XYZ     0.00000     0.00286
            185  C  6  S      1.95557     1.55603
            186  C  6  S      0.82830     0.43279
            187  C  6  S      0.16175     0.27899
            188  C  6  S      0.33059     0.14852
            189  C  6  X      0.30216     0.22960
            190  C  6  Y      0.25817     0.20509
            191  C  6  Z      0.29933     0.22954
            192  C  6  X      0.54634     0.28021
            193  C  6  Y      0.49652     0.26496
            194  C  6  Z      0.54702     0.28068
            195  C  6  X      0.19933     0.20492
            196  C  6  Y      0.10310     0.17004
            197  C  6  Z      0.24931     0.21181
            198  C  6 XX      0.00566     0.08716
            199  C  6 YY      0.00612     0.09042
            200  C  6 ZZ      0.00349     0.08664
            201  C  6 XY      0.00429     0.00315
            202  C  6 XZ      0.00265     0.00453
            203  C  6 YZ      0.00000     0.00250
            204  C  6 XX      0.01054     0.08864
            205  C  6 YY      0.01495     0.10408
            206  C  6 ZZ      0.01029     0.08647
            207  C  6 XY      0.00852     0.02180
            208  C  6 XZ      0.00677     0.01966
            209  C  6 YZ      0.00000     0.01235
            210  C  6 XXX     0.00089     0.16332
            211  C  6 YYY     0.00096     0.16861
            212  C  6 ZZZ     0.00061     0.16638
            213  C  6 XXY     0.00139     0.06994
            214  C  6 XXZ     0.00093     0.07569
            215  C  6 YYX     0.00051     0.07889
            216  C  6 YYZ     0.00148     0.07342
            217  C  6 ZZX     0.00000     0.07415
            218  C  6 ZZY     0.00000     0.06363
            219  C  6 XYZ     0.00000     0.00263
            220  H  7  S      0.25207     0.19437
            221  H  7  S      0.45076     0.24372
            222  H  7  S      0.05822     0.11754
            223  H  7  X      0.00157     0.00201
            224  H  7  Y      0.00749     0.01108
            225  H  7  Z      0.00172     0.00217
            226  H  7  X      0.01033     0.02812
            227  H  7  Y      0.00512     0.04798
            228  H  7  Z      0.00854     0.02984
            229  H  7 XX      0.00030     0.06888
            230  H  7 YY      0.00065     0.11653
            231  H  7 ZZ      0.00100     0.06950
            232  H  7 XY      0.00009     0.00479
            233  H  7 XZ      0.00084     0.00015
            234  H  7 YZ      0.00000     0.00514
            235  H  8  S      0.24607     0.18939
            236  H  8  S      0.44677     0.23846
            237  H  8  S      0.04245     0.11270
            238  H  8  X      0.00158     0.00207
            239  H  8  Y      0.00183     0.00253
            240  H  8  Z      0.00736     0.01063
            241  H  8  X      0.00968     0.02860
            242  H  8  Y      0.00777     0.02874
            243  H  8  Z      0.00648     0.04781
            244  H  8 XX      0.00092     0.06760
            245  H  8 YY      0.00012     0.06986
            246  H  8 ZZ      0.00009     0.11186
            247  H  8 XY      0.00095     0.00019
            248  H  8 XZ      0.00080     0.00487
            249  H  8 YZ      0.00000     0.00537
            250  H  9  S      0.25208     0.18671
            251  H  9  S      0.45076     0.24165
            252  H  9  S      0.05818     0.11784
            253  H  9  X      0.00588     0.00778
            254  H  9  Y      0.00248     0.00353
            255  H  9  Z      0.00242     0.00337
            256  H  9  X      0.00999     0.04415
            257  H  9  Y      0.00684     0.03101
            258  H  9  Z      0.00716     0.03213
            259  H  9 XX      0.00045     0.09933
            260  H  9 YY      0.00090     0.07499
            261  H  9 ZZ      0.00063     0.07416
            262  H  9 XY      0.00065     0.00526
            263  H  9 XZ      0.00025     0.00527
            264  H  9 YZ      0.00000     0.00164
            265  H 10  S      0.25207     0.18604
            266  H 10  S      0.45076     0.24142
            267  H 10  S      0.05817     0.11780
            268  H 10  X      0.00564     0.00745
            269  H 10  Y      0.00246     0.00345
            270  H 10  Z      0.00268     0.00374
            271  H 10  X      0.01037     0.04360
            272  H 10  Y      0.00688     0.03090
            273  H 10  Z      0.00674     0.03289
            274  H 10 XX      0.00050     0.09741
            275  H 10 YY      0.00088     0.07436
            276  H 10 ZZ      0.00060     0.07626
            277  H 10 XY      0.00062     0.00497
            278  H 10 XZ      0.00027     0.00534
            279  H 10 YZ      0.00000     0.00191
            280  H 11  S      0.24607     0.18942
            281  H 11  S      0.44677     0.23841
            282  H 11  S      0.04245     0.11267
            283  H 11  X      0.00162     0.00217
            284  H 11  Y      0.00183     0.00253
            285  H 11  Z      0.00733     0.01056
            286  H 11  X      0.01007     0.02874
            287  H 11  Y      0.00778     0.02874
            288  H 11  Z      0.00608     0.04770
            289  H 11 XX      0.00089     0.06785
            290  H 11 YY      0.00013     0.06987
            291  H 11 ZZ      0.00010     0.11165
            292  H 11 XY      0.00096     0.00022
            293  H 11 XZ      0.00080     0.00490
            294  H 11 YZ      0.00000     0.00534
            295  H 12  S      0.25207     0.19436
            296  H 12  S      0.45077     0.24371
            297  H 12  S      0.05823     0.11751
            298  H 12  X      0.00156     0.00200
            299  H 12  Y      0.00749     0.01108
            300  H 12  Z      0.00172     0.00218
            301  H 12  X      0.01042     0.02822
            302  H 12  Y      0.00517     0.04804
            303  H 12  Z      0.00841     0.02972
            304  H 12 XX      0.00031     0.06891
            305  H 12 YY      0.00065     0.11652
            306  H 12 ZZ      0.00101     0.06947
            307  H 12 XY      0.00008     0.00477
            308  H 12 XZ      0.00083     0.00014
            309  H 12 YZ      0.00000     0.00516
            310  H 13  S      0.25208     0.18635
            311  H 13  S      0.45077     0.24095
            312  H 13  S      0.05822     0.11739
            313  H 13  X      0.00543     0.00695
            314  H 13  Y      0.00261     0.00394
            315  H 13  Z      0.00274     0.00388
            316  H 13  X      0.00440     0.04131
            317  H 13  Y      0.01268     0.03315
            318  H 13  Z      0.00691     0.03263
            319  H 13 XX      0.00050     0.09573
            320  H 13 YY      0.00073     0.07584
            321  H 13 ZZ      0.00072     0.07664
            322  H 13 XY      0.00061     0.00486
            323  H 13 XZ      0.00032     0.00525
            324  H 13 YZ      0.00000     0.00210
            325  H 14  S      0.25207     0.18713
            326  H 14  S      0.45076     0.24124
            327  H 14  S      0.05818     0.11742
            328  H 14  X      0.00567     0.00729
            329  H 14  Y      0.00263     0.00404
            330  H 14  Z      0.00248     0.00350
            331  H 14  X      0.00411     0.04206
            332  H 14  Y      0.01269     0.03330
            333  H 14  Z      0.00721     0.03170
            334  H 14 XX      0.00045     0.09777
            335  H 14 YY      0.00076     0.07654
            336  H 14 ZZ      0.00075     0.07445
            337  H 14 XY      0.00063     0.00516
            338  H 14 XZ      0.00029     0.00518
            339  H 14 YZ      0.00000     0.00182
            340  H 15  S      0.24607     0.18955
            341  H 15  S      0.44678     0.23855
            342  H 15  S      0.04245     0.11272
            343  H 15  X      0.00162     0.00208
            344  H 15  Y      0.00200     0.00310
            345  H 15  Z      0.00716     0.01017
            346  H 15  X      0.00791     0.02784
            347  H 15  Y      0.01160     0.03077
            348  H 15  Z      0.00442     0.04727
            349  H 15 XX      0.00086     0.06688
            350  H 15 YY      0.00020     0.07224
            351  H 15 ZZ      0.00011     0.11059
            352  H 15 XY      0.00077     0.00030
            353  H 15 XZ      0.00094     0.00501
            354  H 15 YZ      0.00000     0.00530

          ----- MULLIKEN ATOMIC OVERLAP POPULATIONS -----
          (OFF-DIAGONAL ELEMENTS NEED TO BE MULTIPLIED BY 2)

             1           2           3           4           5

    1    8.8125552
    2   -0.0073658  13.3618411
    3   -0.1634228   0.1504223   8.8161398
    4   -0.0005289   0.3441437  -0.0125135   5.0039015
    5   -0.0005290   0.3441425  -0.0125126  -0.0305814   5.0039105
    6   -0.0005283   0.3441537  -0.0125235  -0.0305591  -0.0305626
    7    0.0005522  -0.0165849   0.0006246   0.3644397  -0.0028193
    8    0.0004989  -0.0128705   0.0010549   0.3569626  -0.0005598
    9    0.0005498  -0.0165929   0.0006265   0.3644514   0.0022785
   10    0.0005499  -0.0165938   0.0006261   0.0022786   0.3644474
   11    0.0004986  -0.0128660   0.0010549  -0.0005577   0.3569610
   12    0.0005523  -0.0165864   0.0006249  -0.0028225   0.3644412
   13    0.0005514  -0.0165821   0.0006261   0.0022776  -0.0028276
   14    0.0005504  -0.0165822   0.0006257  -0.0028247   0.0022775
   15    0.0004996  -0.0128884   0.0010551  -0.0005569  -0.0005546

             6           7           8           9          10

    6    5.0038877
    7    0.0022775   0.4784066
    8   -0.0005561  -0.0099692   0.4488339
    9   -0.0028274  -0.0186393  -0.0099620   0.4783693
   10   -0.0028228  -0.0000055   0.0000236  -0.0000617   0.4783568
   11   -0.0005593  -0.0002091  -0.0000938   0.0000238  -0.0099607
   12    0.0022775   0.0006764  -0.0002086  -0.0000056  -0.0186399
   13    0.3644464  -0.0000617   0.0000234  -0.0000052   0.0006808
   14    0.3644509  -0.0000054  -0.0002083   0.0006820  -0.0000051
   15    0.3569689   0.0000235  -0.0000972  -0.0002090  -0.0002103

            11          12          13          14          15

   11    0.4488287
   12   -0.0099694   0.4784242
   13   -0.0002071  -0.0000057   0.4784109
   14    0.0000231  -0.0000617  -0.0186434   0.4783544
   15   -0.0000964   0.0000238  -0.0099671  -0.0099641   0.4488476

          TOTAL MULLIKEN AND LOWDIN ATOMIC POPULATIONS
       ATOM         MULL.POP.    CHARGE          LOW.POP.     CHARGE
    1 LA            8.644984    2.355016         8.780139    2.219861
    2 P            14.399190    0.600810        14.294073    0.705927
    3 O             8.772509   -0.772509         8.479931   -0.479931
    4 C             6.357511   -0.357511         6.024157   -0.024157
    5 C             6.357512   -0.357512         6.025117   -0.025117
    6 C             6.357523   -0.357523         6.037255   -0.037255
    7 H             0.798706    0.201294         0.941825    0.058175
    8 H             0.772872    0.227128         0.920679    0.079321
    9 H             0.798678    0.201322         0.928817    0.071183
   10 H             0.798663    0.201337         0.927529    0.072471
   11 H             0.772871    0.227129         0.920755    0.079245
   12 H             0.798721    0.201279         0.941796    0.058204
   13 H             0.798717    0.201283         0.926941    0.073059
   14 H             0.798669    0.201331         0.928598    0.071402
   15 H             0.772875    0.227125         0.922386    0.077614

          MULLIKEN SPHERICAL HARMONIC POPULATIONS
       ATOM           S       P       D      F      G      H      I    TOTAL
    1 LA            2.00    6.07    0.58   0.00   0.00   0.00   0.00    8.64
    2 P             5.36    8.41    0.56   0.07   0.00   0.00   0.00   14.40
    3 O             3.82    4.91    0.04   0.00   0.00   0.00   0.00    8.77
    4 C             3.28    3.00    0.07   0.01   0.00   0.00   0.00    6.36
    5 C             3.28    3.00    0.07   0.01   0.00   0.00   0.00    6.36
    6 C             3.28    3.00    0.07   0.01   0.00   0.00   0.00    6.36
    7 H             0.76    0.03    0.00   0.00   0.00   0.00   0.00    0.80
    8 H             0.74    0.03    0.00   0.00   0.00   0.00   0.00    0.77
    9 H             0.76    0.03    0.00   0.00   0.00   0.00   0.00    0.80
   10 H             0.76    0.03    0.00   0.00   0.00   0.00   0.00    0.80
   11 H             0.74    0.03    0.00   0.00   0.00   0.00   0.00    0.77
   12 H             0.76    0.03    0.00   0.00   0.00   0.00   0.00    0.80
   13 H             0.76    0.03    0.00   0.00   0.00   0.00   0.00    0.80
   14 H             0.76    0.03    0.00   0.00   0.00   0.00   0.00    0.80
   15 H             0.74    0.03    0.00   0.00   0.00   0.00   0.00    0.77

          -------------------------------
          BOND ORDER AND VALENCE ANALYSIS     BOND ORDER THRESHOLD=0.050
          -------------------------------

                   BOND                       BOND                       BOND
  ATOM PAIR DIST  ORDER      ATOM PAIR DIST  ORDER      ATOM PAIR DIST  ORDER
    1   3  1.900  0.689        2   3  1.737  0.692        2   4  1.770  1.028
    2   5  1.770  1.028        2   6  1.770  1.028        4   7  1.090  0.872
    4   8  1.097  0.852        4   9  1.090  0.872        5  10  1.090  0.872
    5  11  1.097  0.852        5  12  1.090  0.872        6  13  1.090  0.872
    6  14  1.090  0.872        6  15  1.097  0.852

                       TOTAL       BONDED        FREE
      ATOM            VALENCE     VALENCE     VALENCE
    1 LA                0.730       0.762      -0.032
    2 P                 4.546       4.199       0.346
    3 O                 1.948       1.419       0.529
    4 C                 3.929       3.636       0.293
    5 C                 3.929       3.636       0.293
    6 C                 3.929       3.636       0.293
    7 H                 0.974       0.923       0.051
    8 H                 0.965       0.915       0.050
    9 H                 0.974       0.923       0.051
   10 H                 0.974       0.923       0.051
   11 H                 0.965       0.915       0.050
   12 H                 0.974       0.923       0.051
   13 H                 0.974       0.923       0.051
   14 H                 0.974       0.923       0.051
   15 H                 0.965       0.915       0.050

          ---------------------
          ELECTROSTATIC MOMENTS
          ---------------------

 POINT   1           X           Y           Z (BOHR)    CHARGE
                -0.234121    1.547923   -4.996719        3.00 (A.U.)
         DX          DY          DZ         /D/  (DEBYE)
     0.034823   -0.218187    0.974016    0.998762
 ...... END OF PROPERTY EVALUATION ......
 CPU     0: STEP CPU TIME=     0.20 TOTAL CPU TIME=     2293.8 (   38.2 MIN)
 TOTAL WALL CLOCK TIME=     2328.1 SECONDS, CPU UTILIZATION IS  98.53%
  $VIB   
          IVIB=   0 IATOM=   0 ICOORD=   0 E=     -565.5920396857
  4.542443269E-07 5.241661470E-07 1.013247157E-07-8.475219008E-07 1.028668567E-05
 -5.362306641E-05 8.587181752E-07-1.393192027E-05 4.119663535E-05 3.766973111E-05
 -1.713952022E-05 2.524161373E-05-3.843861672E-05-1.905353382E-05 3.274174380E-05
  1.182760284E-06 1.874223474E-05 1.445744799E-05-1.517101757E-05 5.760056358E-06
 -3.894014542E-06-1.186662193E-05 2.049658406E-05 1.555666950E-06 1.050968622E-05
 -1.486056555E-06-1.302700915E-05-1.082670232E-05-2.353132034E-06-1.216316395E-05
  1.196292678E-05 2.057418017E-05 9.576447794E-07 1.391613666E-05 5.478865116E-06
 -6.979255437E-06-9.216098114E-06-7.664865695E-06-9.705496839E-06 6.999064798E-06
 -5.070697837E-06-6.943711903E-06 2.813310197E-06-1.516304584E-05-9.916359079E-06
  3.482337972E-02-2.181873402E-01 9.740155142E-01
 ......END OF GEOMETRY SEARCH......
 CPU     0: STEP CPU TIME=     0.00 TOTAL CPU TIME=     2293.8 (   38.2 MIN)
 TOTAL WALL CLOCK TIME=     2328.2 SECONDS, CPU UTILIZATION IS  98.52%
               2991967  WORDS OF DYNAMIC MEMORY USED
 EXECUTION OF GAMESS TERMINATED NORMALLY Thu Jun  9 11:33:53 2016
 DDI: 44487344 bytes (42.4 MB / 5 MWords) used by master data server.

 ----------------------------------------
 CPU timing information for all processes
 ========================================
 0: 2290.427 + 3.446 = 2293.874
 1: 2289.244 + 3.318 = 2292.563
 2: 2289.305 + 3.443 = 2292.749
 3: 2289.216 + 3.208 = 2292.425
 4: 2290.84 + 3.365 = 2293.450
 5: 2291.917 + 3.336 = 2295.254
 6: 2292.884 + 3.404 = 2296.288
 7: 2291.205 + 3.309 = 2294.515
 8: 2291.574 + 3.493 = 2295.68
 9: 2294.455 + 3.310 = 2297.765
 10: 2292.805 + 3.358 = 2296.163
 11: 2292.214 + 3.321 = 2295.536
 12: 2293.272 + 3.334 = 2296.606
 13: 2292.777 + 3.263 = 2296.40
 14: 2291.603 + 3.329 = 2294.933
 15: 2289.494 + 2.609 = 2292.104
 16: 0.16 + 0.75 = 0.92
 17: 0.15 + 0.73 = 0.89
 18: 0.16 + 0.77 = 0.94
 19: 0.17 + 0.65 = 0.83
 20: 0.15 + 0.69 = 0.85
 21: 0.11 + 0.76 = 0.88
 22: 0.13 + 0.63 = 0.77
 23: 0.12 + 0.69 = 0.82
 24: 0.16 + 0.76 = 0.93
 25: 0.23 + 0.56 = 0.80
 26: 0.16 + 0.74 = 0.91
 27: 0.13 + 0.68 = 0.82
 28: 0.18 + 0.65 = 0.84
 29: 0.14 + 0.81 = 0.96
 30: 0.07 + 0.79 = 0.87
 31: 0.14 + 0.77 = 0.92
 ----------------------------------------
unset echo
----- accounting info -----
Files used on the master node node203 were:
-rw-r--r-- 1 fzahari quantum     1992 Jun  9 10:55 /local/scratch/fzahari/196589.share/bnd_var-019.F05
-rw-r--r-- 1 fzahari quantum 17178000 Jun  9 11:33 /local/scratch/fzahari/196589.share/bnd_var-019.F10
-rw-r--r-- 1 fzahari quantum        8 Jun  9 10:55 /local/scratch/fzahari/196589.share/bnd_var-019.nodes.mpd
ls: No match.
ls: No match.
ls: No match.
Thu Jun  9 11:33:55 CDT 2016
36663.358u 58.943s 38:52.70 1574.2%	0+0k 3448+336888io 1pf+0w
