----- GAMESS execution script 'rungms' -----
This job is running on host node222
under operating system Linux at Wed Jun 8 23:03:47 CDT 2016
PBS has assigned the following compute nodes to this run:
node222
Available scratch disk space (Kbyte units) at beginning of the job is
Filesystem           1K-blocks      Used Available Use% Mounted on
/dev/sda7            2670838024    213284 2534953956   1% /local
GAMESS temporary binary files will be written to /local/scratch/fzahari/196565.share
GAMESS supplementary output files will be written to /work1/quantum/fzahari/scr
Copying input file bnd_var-245.inp to your run's scratch directory...
cp bnd_var-245.inp /local/scratch/fzahari/196565.share/bnd_var-245.F05
unset echo
setenv I_MPI_WAIT_MODE enable
setenv I_MPI_PIN disable
setenv I_MPI_DEBUG 0
setenv I_MPI_STATS 0
setenv I_MPI_FABRICS dapl
setenv I_MPI_DAT_LIBRARY libdat2.so
unset echo
MPI kickoff will run GAMESS on 16 cores in 1 nodes.
The binary to be executed is /home/mschmidt/gamess/gamess.132.x
MPI will run 16 compute processes and 16 data servers,
    placing 16 of each process type onto each node.
The scratch disk space on each node is /local/scratch/fzahari/196565.share, with free space
Filesystem           1K-blocks      Used Available Use% Mounted on
/dev/sda7            2670838024    213308 2534953932   1% /local
setenv I_MPI_HYDRA_ENV all
setenv I_MPI_PERHOST 32
unset echo
mpiexec.hydra -f /local/scratch/fzahari/196565.share/bnd_var-245.processes.mpd -n 32 /home/mschmidt/gamess/gamess.132.x
          ******************************************************
          *         GAMESS VERSION =  5 DEC 2014 (R1)          *
          *             FROM IOWA STATE UNIVERSITY             *
          * M.W.SCHMIDT, K.K.BALDRIDGE, J.A.BOATZ, S.T.ELBERT, *
          *   M.S.GORDON, J.H.JENSEN, S.KOSEKI, N.MATSUNAGA,   *
          *          K.A.NGUYEN, S.J.SU, T.L.WINDUS,           *
          *       TOGETHER WITH M.DUPUIS, J.A.MONTGOMERY       *
          *         J.COMPUT.CHEM.  14, 1347-1363(1993)        *
          **************** 64 BIT INTEL VERSION ****************

  SINCE 1993, STUDENTS AND POSTDOCS WORKING AT IOWA STATE UNIVERSITY
  AND ALSO IN THEIR VARIOUS JOBS AFTER LEAVING ISU HAVE MADE IMPORTANT
  CONTRIBUTIONS TO THE CODE:
     IVANA ADAMOVIC, CHRISTINE AIKENS, YURI ALEXEEV, POOJA ARORA,
     ANDREY ASADCHEV, ROB BELL, PRADIPTA BANDYOPADHYAY, JONATHAN BENTZ,
     BRETT BODE, KURT BRORSEN, CALEB CARLIN, GALINA CHABAN, WEI CHEN,
     CHEOL HO CHOI, PAUL DAY, ALBERT DEFUSCO, NUWAN DESILVA, TIM DUDLEY,
     DMITRI FEDOROV, GRAHAM FLETCHER, MARK FREITAG, KURT GLAESEMANN,
     DAN KEMP, GRANT MERRILL, NORIYUKI MINEZAWA, JONATHAN MULLIN,
     TAKESHI NAGATA, SEAN NEDD, HEATHER NETZLOFF, BOSILJKA NJEGIC, RYAN OLSON,
     MIKE PAK, SPENCER PRUITT, LUKE ROSKOP, JIM SHOEMAKER, LYUDMILA SLIPCHENKO,
     TONY SMITH, SAROM SOK, JIE SONG, TETSUYA TAKETSUGU, SIMON WEBB,
     PENG XU, SOOHAENG YOO, FEDERICO ZAHARIEV

  ADDITIONAL CODE HAS BEEN PROVIDED BY COLLABORATORS IN OTHER GROUPS:
     IOWA STATE UNIVERSITY:
          JOE IVANIC, AARON WEST, LAIMUTIS BYTAUTAS, KLAUS RUEDENBERG
     UNIVERSITY OF TOKYO: KIMIHIKO HIRAO, TAKAHITO NAKAJIMA,
          TAKAO TSUNEDA, MUNEAKI KAMIYA, SUSUMU YANAGISAWA,
          KIYOSHI YAGI, MAHITO CHIBA, SEIKEN TOKURA, NAOAKI KAWAKAMI
     UNIVERSITY OF AARHUS: FRANK JENSEN
     UNIVERSITY OF IOWA: VISVALDAS KAIRYS, HUI LI
     NATIONAL INST. OF STANDARDS AND TECHNOLOGY: WALT STEVENS, DAVID GARMER
     UNIVERSITY OF PISA: BENEDETTA MENNUCCI, JACOPO TOMASI
     UNIVERSITY OF MEMPHIS: HENRY KURTZ, PRAKASHAN KORAMBATH
     UNIVERSITY OF ALBERTA: TOBY ZENG, MARIUSZ KLOBUKOWSKI
     UNIVERSITY OF NEW ENGLAND: MARK SPACKMAN
     MIE UNIVERSITY: HIROAKI UMEDA
     NAT. INST. OF ADVANCED INDUSTRIAL SCIENCE AND TECHNOLOGY: KAZUO KITAURA
     MICHIGAN STATE UNIVERSITY:
          KAROL KOWALSKI, MARTA WLOCH, JEFFREY GOUR, JESSE LUTZ,
          WEI LI, PIOTR PIECUCH
     UNIVERSITY OF SILESIA: MONIKA MUSIAL, STANISLAW KUCHARSKI
     FACULTES UNIVERSITAIRES NOTRE-DAME DE LA PAIX:
          OLIVIER QUINET, BENOIT CHAMPAGNE
     UNIVERSITY OF CALIFORNIA - SANTA BARBARA: BERNARD KIRTMAN
     INSTITUTE FOR MOLECULAR SCIENCE:
          KAZUYA ISHIMURA, MICHIO KATOUDA, AND SHIGERU NAGASE
     UNIVERSITY OF NOTRE DAME: ANNA POMOGAEVA, DAN CHIPMAN
     KYUSHU UNIVERSITY:
          HARUYUKI NAKANO,
          FENG LONG GU, JACEK KORCHOWIEC, MARCIN MAKOWSKI, AND YURIKO AOKI,
          HIROTOSHI MORI AND EISAKU MIYOSHI
     PENNSYLVANIA STATE UNIVERSITY:
          TZVETELIN IORDANOV, CHET SWALINA, JONATHAN SKONE,
          SHARON HAMMES-SCHIFFER
     WASEDA UNIVERSITY:
          MASATO KOBAYASHI, TOMOKO AKAMA, TSUGUKI TOUMA,
          TAKESHI YOSHIKAWA, YASUHIRO IKABATA, HIROMI NAKAI
     NANJING UNIVERSITY: SHUHUA LI
     UNIVERSITY OF NEBRASKA:
          PEIFENG SU, DEJUN SI, NANDUN THELLAMUREGE, YALI WANG, HUI LI
     UNIVERSITY OF ZURICH: ROBERTO PEVERATI, KIM BALDRIDGE
     N. COPERNICUS UNIVERSITY AND JACKSON STATE UNIVERSITY:
          MARIA BARYSZ
     UNIVERSITY OF COPENHAGEN: CASPER STEINMANN
     TOKYO INSTITUTE OF TECHNOLOGY: HIROYA NAKATA
     NAGOYA UNIVERSITY: YOSHIO NISHIMOTO, STEPHAN IRLE


 PARALLEL VERSION RUNNING ON       16 PROCESSORS IN        1 NODES.

 EXECUTION OF GAMESS BEGUN Wed Jun  8 23:03:48 2016

            ECHO OF THE FIRST FEW INPUT CARDS -
 INPUT CARD> $ZMAT DLC=.T. AUTO=.T. $END                                                    
 INPUT CARD> $ZMAT IFZMAT(1)=1, 1 , 3  FVALUE(1)= 2.45 $END                                 
 INPUT CARD> $CONTRL COORD=UNIQUE NZVAR= 39 $END                                            
 INPUT CARD> $CONTRL ICHARG=+3 MULT=1                                                       
 INPUT CARD>         MPLEVL=2                                                               
 INPUT CARD>         SCFTYP=RHF                                                             
 INPUT CARD>         MAXIT=200 ISPHER=1 ICUT=11                                             
 INPUT CARD>         RUNTYP=OPTIMIZE                                                        
 INPUT CARD>         PP=READ                                                                
 INPUT CARD>         $END                                                                   
 INPUT CARD> $SCF    DIRSCF=.T. FDIFF=.F. $END                                              
 INPUT CARD> $TRANS  DIRTRF=.T. $END                                                        
 INPUT CARD> $SYSTEM MWORDS=300 MEMDDI=300 $END                                             
 INPUT CARD> $GUESS  GUESS=HUCKEL $END                                                      
 INPUT CARD> $BASIS  BASNAM(1)=METAL,                                                       
 INPUT CARD>                   LIGP,                                                        
 INPUT CARD>                   LIGO,                                                        
 INPUT CARD>                   LIGC,                                                        
 INPUT CARD>                   LIGC,                                                        
 INPUT CARD>                   LIGC,                                                        
 INPUT CARD>                   LIGH,                                                        
 INPUT CARD>                   LIGH,                                                        
 INPUT CARD>                   LIGH,                                                        
 INPUT CARD>                   LIGH,                                                        
 INPUT CARD>                   LIGH,                                                        
 INPUT CARD>                   LIGH,                                                        
 INPUT CARD>                   LIGH,                                                        
 INPUT CARD>                   LIGH,                                                        
 INPUT CARD>                   LIGH                                                         
 INPUT CARD> $END                                                                           
 INPUT CARD> $DATA                                                                          
 INPUT CARD>                                                                                
 INPUT CARD> C1                                                                             
 INPUT CARD> La 57.0 -0.1739353441 1.134168269 -4.0490164368                                
 INPUT CARD> P 15.0 -0.0280214719998 0.214198452387 0.0532292891699                         
 INPUT CARD> O 8.0 -0.0898339949998 0.598439372287 -1.65978611883                           
 INPUT CARD> C 6.0 -1.4775133681 0.926654216187 0.78890616457                               
 INPUT CARD> C 6.0 1.4645054838 0.936943085687 0.68564047677                                
 INPUT CARD> C 6.0 -0.0170914925998 -1.55608159551 0.17999204237                            
 INPUT CARD> H 1.0 -1.4792620349 2.00948728719 0.67553476657                                
 INPUT CARD> H 1.0 -1.4407807718 0.690451438587 1.85679868847                               
 INPUT CARD> H 1.0 -2.3819079569 0.488949082187 0.36975564957                               
 INPUT CARD> H 1.0 2.3405739724 0.504975983487 0.20481019497                                
 INPUT CARD> H 1.0 1.5036912831 0.700381214587 1.75338350067                                
 INPUT CARD> H 1.0 1.4512683426 2.01969676049 0.57278147407                                 
 INPUT CARD> H 1.0 0.8650990071 -1.97527294071 -0.30107526313                               
 INPUT CARD> H 1.0 -0.9284729943 -1.98212808351 -0.23620716233                              
 INPUT CARD> H 1.0 0.0224186961002 -1.79742842001 1.24656219627                             
 INPUT CARD> $END                                                                           
 INPUT CARD>!                                                                               
  300000000 WORDS OF MEMORY AVAILABLE

     BASIS OPTIONS
     -------------
     GBASIS=             IGAUSS=       0      POLAR=NONE    
     NDFUNC=       0     NFFUNC=       0     DIFFSP=       F
     NPFUNC=       0      DIFFS=       F     BASNAM=METAL   

 USING BASNAM FOR ATOM CUSTOMIZED BASIS CONSTRUCTION
     ----------------
     ATOM  BASIS NAME
     ----------------
       1   METAL   
       2   LIGP    
       3   LIGO    
       4   LIGC    
       5   LIGC    
       6   LIGC    
       7   LIGH    
       8   LIGH    
       9   LIGH    
      10   LIGH    
      11   LIGH    
      12   LIGH    
      13   LIGH    
      14   LIGH    
      15   LIGH    
 NOW LOCATING ALL   15 BASIS SETS IN YOUR INPUT FILE...
 FOUND BASIS SET  $METAL 
  SBKJC                        
                               
  $END                         
 FOUND BASIS SET  $LIGP  
  CCT                          
                               
  $END                         
 FOUND BASIS SET  $LIGO  
  CCT                          
                               
  $END                         
 FOUND BASIS SET  $LIGC  
  CCT                          
                               
  $END                         
 FOUND BASIS SET  $LIGH  
  CCT                          
                               
  $END                         
    5 UNIQUE ATOM CUSTOMIZED BASIS SETS WERE FOUND.

     SEARCHING FOR $MCP
     $MCP GROUP NOT FOUND


     RUN TITLE
     ---------
                                                                                 

 THE POINT GROUP OF THE MOLECULE IS C1      
 THE ORDER OF THE PRINCIPAL AXIS IS     0

 ATOM      ATOMIC                      COORDINATES (BOHR)
           CHARGE         X                   Y                   Z
 LA         57.0    -0.3286901399        2.1432672524       -7.6515315853
 P          15.0    -0.0529529039        0.4047763820        0.1005887711
 O           8.0    -0.1697616349        1.1308864339       -3.1365409628
 C           6.0    -2.7920954089        1.7511225540        1.4908164811
 C           6.0     2.7675140719        1.7705656980        1.2956726272
 C           6.0    -0.0322982377       -2.9405678301        0.3401356400
 H           1.0    -2.7953999100        3.7973803486        1.2765756040
 H           1.0    -2.7226808671        1.3047640268        3.5088407356
 H           1.0    -4.5011533665        0.9239797873        0.6987368601
 H           1.0     4.4230434618        0.9542662392        0.3870351480
 H           1.0     2.8415644952        1.3235285825        3.3134143677
 H           1.0     2.7424995022        3.8166734556        1.0824000368
 H           1.0     1.6348000757       -3.7327246089       -0.5689497490
 H           1.0    -1.7545595462       -3.7456789504       -0.4463668131
 H           1.0     0.0423651926       -3.3966471964        2.3556609776

          INTERNUCLEAR DISTANCES (ANGS.)
          ------------------------------

                1 LA         2 P          3 O          4 C          5 C     

   1 LA      0.0000000    4.2066680    2.4500000 *  5.0147655    5.0140166  
   2 P       4.2066680    0.0000000    1.7566683 *  1.7747790 *  1.7748072 *
   3 O       2.4500000 *  1.7566683 *  0.0000000    2.8336325 *  2.8340046 *
   4 C       5.0147655    1.7747790 *  2.8336325 *  0.0000000    2.9438486 *
   5 C       5.0140166    1.7748072 *  2.8340046 *  2.9438486 *  0.0000000  
   6 C       5.0146343    1.7748464 *  2.8340846 *  2.9440764 *  2.9438040 *
   7 H       4.9791008    2.3909047 *  3.0619096    1.0887532 *  3.1330848  
   8 H       6.0564374    2.3399932 *  3.7682744    1.0943196 *  3.1421422  
   9 H       4.9816661    2.3909116 *  3.0634345    1.0886701 *  3.8852771  
  10 H       4.9813333    2.3911865 *  3.0646921    3.8854564    1.0887099 *
  11 H       6.0556129    2.3394534 *  3.7682147    3.1414960    1.0943364 *
  12 H       4.9786006    2.3912459 *  3.0625687    3.1335625    1.0887001 *
  13 H       4.9794859    2.3910209 *  3.0630030    3.8854953    3.1327142  
  14 H       4.9817813    2.3913253 *  3.0641835    3.1326214    3.8855020  
  15 H       6.0560686    2.3394936 *  3.7682415    3.1432263    3.1418203  

                6 C          7 H          8 H          9 H         10 H     

   1 LA      5.0146343    4.9791008    6.0564374    4.9816661    4.9813333  
   2 P       1.7748464 *  2.3909047 *  2.3399932 *  2.3909116 *  2.3911865 *
   3 O       2.8340846 *  3.0619096    3.7682744    3.0634345    3.0646921  
   4 C       2.9440764 *  1.0887532 *  1.0943196 *  1.0886701 *  3.8854564  
   5 C       2.9438040 *  3.1330848    3.1421422    3.8852771    1.0887099 *
   6 C       0.0000000    3.8854584    3.1441187    3.1321746    3.1316387  
   7 H       3.8854584    0.0000000    1.7710790 *  1.7945214 *  4.1323459  
   8 H       3.1441187    1.7710790 *  0.0000000    1.7713330 *  4.1306308  
   9 H       3.1321746    1.7945214 *  1.7713330 *  0.0000000    4.7253888  
  10 H       3.1316387    4.1323459    4.1306308    4.7253888    0.0000000  
  11 H       3.1432412    3.4312574    2.9463043 *  4.1300134    1.7710548 *
  12 H       3.8854285    2.9323490 *  3.4321337    4.1325112    1.7946159 *
  13 H       1.0887641 *  4.7252629    4.1327458    4.1310360    2.9299456 *
  14 H       1.0887395 *  4.1312995    3.4330473    2.9301683 *  4.1312045  
  15 H       1.0942492 *  4.1320364    2.9500657 *  3.4317777    3.4293086  

               11 H         12 H         13 H         14 H         15 H     

   1 LA      6.0556129    4.9786006    4.9794859    4.9817813    6.0560686  
   2 P       2.3394534 *  2.3912459 *  2.3910209 *  2.3913253 *  2.3394936 *
   3 O       3.7682147    3.0625687    3.0630030    3.0641835    3.7682415  
   4 C       3.1414960    3.1335625    3.8854953    3.1326214    3.1432263  
   5 C       1.0943364 *  1.0887001 *  3.1327142    3.8855020    3.1418203  
   6 C       3.1432412    3.8854285    1.0887641 *  1.0887395 *  1.0942492 *
   7 H       3.4312574    2.9323490 *  4.7252629    4.1312995    4.1320364  
   8 H       2.9463043 *  3.4321337    4.1327458    3.4330473    2.9500657 *
   9 H       4.1300134    4.1325112    4.1310360    2.9301683 *  3.4317777  
  10 H       1.7710548 *  1.7946159 *  2.9299456 *  4.1312045    3.4293086  
  11 H       0.0000000    1.7712038 *  3.4333258    4.1315554    2.9478957 *
  12 H       1.7712038 *  0.0000000    4.1312229    4.7256993    4.1311060  
  13 H       3.4333258    4.1312229    0.0000000    1.7947578 *  1.7711354 *
  14 H       4.1315554    4.7256993    1.7947578 *  0.0000000    1.7711335 *
  15 H       2.9478957 *  4.1311060    1.7711354 *  1.7711335 *  0.0000000  

  * ... LESS THAN  3.000


     ATOMIC BASIS SET
     ----------------
 THE CONTRACTED PRIMITIVE FUNCTIONS HAVE BEEN UNNORMALIZED
 THE CONTRACTED BASIS FUNCTIONS ARE NOW NORMALIZED TO UNITY

  SHELL TYPE  PRIMITIVE        EXPONENT          CONTRACTION COEFFICIENT(S)

 LA        

      1   L       1             9.1730000   -0.054833023521   -0.009797991527
      1   L       2             3.1200000    0.676604290237    0.231261800020
      1   L       3             2.1040000   -1.034429443730   -0.601214480110
      1   L       4             1.3200000   -0.518907222591    0.195188831214
      1   L       5             0.4960000    1.631603699894    1.076136069429

      2   D       6             1.2380000   -0.053797021791
      2   D       7             0.6061000    0.380144153981
      2   D       8             0.2518000    0.720349291785

      3   D       9             0.0978700    1.000000000000

      4   L      10             0.6182000   -0.107095028128   -0.051868986063
      4   L      11             0.0454600    1.033448271434    1.008107729120

      5   L      12             0.0177500    1.000000000000    1.000000000000

      6   L      13             0.2004000    1.000000000000    1.000000000000

      7   D      14             0.0353600    1.000000000000

 P         

      8   S      15        312400.0000000    0.000057689641
      8   S      16         46800.0000000    0.000448246591
      8   S      17         10650.0000000    0.002349131061
      8   S      18          3018.0000000    0.009781571802
      8   S      19           986.8000000    0.034142936511
      8   S      20           357.4000000    0.100192955985
      8   S      21           139.6000000    0.234346168617
      8   S      22            57.6300000    0.382391849918
      8   S      23            24.6000000    0.318052941833
      8   S      24            10.1200000    0.070770999093
      8   S      25             4.2830000   -0.001817789630
      8   S      26             1.8050000    0.002161561737
      8   S      27             0.2782000    0.000432249354

      9   S      28        312400.0000000   -0.000016380204
      9   S      29         46800.0000000   -0.000127233535
      9   S      30         10650.0000000   -0.000668625166
      9   S      31          3018.0000000   -0.002795303744
      9   S      32           986.8000000   -0.009928227435
      9   S      33           357.4000000   -0.030244566456
      9   S      34           139.6000000   -0.077884705328
      9   S      35            57.6300000   -0.156724571545
      9   S      36            24.6000000   -0.198042753651
      9   S      37            10.1200000    0.037971251521
      9   S      38             4.2830000    0.552751544147
      9   S      39             1.8050000    0.542611452452
      9   S      40             0.2782000   -0.009675942874

     10   S      41        312400.0000000    0.000006865735
     10   S      42         46800.0000000    0.000053281983
     10   S      43         10650.0000000    0.000280421002
     10   S      44          3018.0000000    0.001170789768
     10   S      45           986.8000000    0.004173591138
     10   S      46           357.4000000    0.012720496749
     10   S      47           139.6000000    0.033152766352
     10   S      48            57.6300000    0.067671246836
     10   S      49            24.6000000    0.089831018862
     10   S      50            10.1200000   -0.020305232360
     10   S      51             4.2830000   -0.313280408979
     10   S      52             1.8050000   -0.563687905527
     10   S      53             0.2782000    1.117494073734

     11   S      54             0.6158000    1.000000000000

     12   S      55             0.1055000    1.000000000000

     13   P      56           504.9000000    0.002433660431
     13   P      57           119.4000000    0.019305559477
     13   P      58            37.9600000    0.088473106893
     13   P      59            13.9500000    0.254701981099
     13   P      60             5.4570000    0.440199242653
     13   P      61             2.1770000    0.383632006272
     13   P      62             0.2877000   -0.003946337074

     14   P      63           504.9000000   -0.000954298933
     14   P      64           119.4000000   -0.007664025747
     14   P      65            37.9600000   -0.035465925259
     14   P      66            13.9500000   -0.106164716437
     14   P      67             5.4570000   -0.187210586037
     14   P      68             2.1770000   -0.181495819791
     14   P      69             0.2877000    0.991672644618

     15   P      70             0.8010000    1.000000000000

     16   P      71             0.0971400    1.000000000000

     17   D      72             0.6480000    1.000000000000

     18   D      73             0.2180000    1.000000000000

     19   F      74             0.4520000    1.000000000000

     20   D      75             3.1200000    1.000000000000

 O         

     21   S      76         15330.0000000    0.000520198307
     21   S      77          2299.0000000    0.004023344781
     21   S      78           522.4000000    0.020729083329
     21   S      79           147.3000000    0.081082327080
     21   S      80            47.5500000    0.236226352118
     21   S      81            16.7600000    0.443518209420
     21   S      82             6.2070000    0.358670588689
     21   S      83             0.6882000   -0.008349797237

     22   S      84         15330.0000000   -0.000197236012
     22   S      85          2299.0000000   -0.001535010700
     22   S      86           522.4000000   -0.007951183914
     22   S      87           147.3000000   -0.032113452892
     22   S      88            47.5500000   -0.100269643049
     22   S      89            16.7600000   -0.234047111838
     22   S      90             6.2070000   -0.301410927756
     22   S      91             0.6882000    1.034919649508

     23   S      92             1.7520000    1.000000000000

     24   S      93             0.2384000    1.000000000000

     25   P      94            34.4600000    0.041163489568
     25   P      95             7.7490000    0.257762835858
     25   P      96             2.2800000    0.802419274427

     26   P      97             0.7156000    1.000000000000

     27   P      98             0.2140000    1.000000000000

     28   D      99             2.3140000    1.000000000000

     29   D     100             0.6450000    1.000000000000

     30   F     101             1.4280000    1.000000000000

 C         

     31   S     102          8236.0000000    0.000542430189
     31   S     103          1235.0000000    0.004196427901
     31   S     104           280.8000000    0.021540914108
     31   S     105            79.2700000    0.083614949614
     31   S     106            25.5900000    0.239871618922
     31   S     107             8.9970000    0.443751820060
     31   S     108             3.3190000    0.353579696469
     31   S     109             0.3643000   -0.009176366076

     32   S     110          8236.0000000   -0.000196392234
     32   S     111          1235.0000000   -0.001525950274
     32   S     112           280.8000000   -0.007890449028
     32   S     113            79.2700000   -0.031514870532
     32   S     114            25.5900000   -0.096910008320
     32   S     115             8.9970000   -0.220541526288
     32   S     116             3.3190000   -0.296069112937
     32   S     117             0.3643000    1.040503432950

     33   S     118             0.9059000    1.000000000000

     34   S     119             0.1285000    1.000000000000

     35   P     120            18.7100000    0.039426387165
     35   P     121             4.1330000    0.244088984924
     35   P     122             1.2000000    0.815492008943

     36   P     123             0.3827000    1.000000000000

     37   P     124             0.1209000    1.000000000000

     38   D     125             1.0970000    1.000000000000

     39   D     126             0.3180000    1.000000000000

     40   F     127             0.7610000    1.000000000000

 C         

     41   S     128          8236.0000000    0.000542430189
     41   S     129          1235.0000000    0.004196427901
     41   S     130           280.8000000    0.021540914108
     41   S     131            79.2700000    0.083614949614
     41   S     132            25.5900000    0.239871618922
     41   S     133             8.9970000    0.443751820060
     41   S     134             3.3190000    0.353579696469
     41   S     135             0.3643000   -0.009176366076

     42   S     136          8236.0000000   -0.000196392234
     42   S     137          1235.0000000   -0.001525950274
     42   S     138           280.8000000   -0.007890449028
     42   S     139            79.2700000   -0.031514870532
     42   S     140            25.5900000   -0.096910008320
     42   S     141             8.9970000   -0.220541526288
     42   S     142             3.3190000   -0.296069112937
     42   S     143             0.3643000    1.040503432950

     43   S     144             0.9059000    1.000000000000

     44   S     145             0.1285000    1.000000000000

     45   P     146            18.7100000    0.039426387165
     45   P     147             4.1330000    0.244088984924
     45   P     148             1.2000000    0.815492008943

     46   P     149             0.3827000    1.000000000000

     47   P     150             0.1209000    1.000000000000

     48   D     151             1.0970000    1.000000000000

     49   D     152             0.3180000    1.000000000000

     50   F     153             0.7610000    1.000000000000

 C         

     51   S     154          8236.0000000    0.000542430189
     51   S     155          1235.0000000    0.004196427901
     51   S     156           280.8000000    0.021540914108
     51   S     157            79.2700000    0.083614949614
     51   S     158            25.5900000    0.239871618922
     51   S     159             8.9970000    0.443751820060
     51   S     160             3.3190000    0.353579696469
     51   S     161             0.3643000   -0.009176366076

     52   S     162          8236.0000000   -0.000196392234
     52   S     163          1235.0000000   -0.001525950274
     52   S     164           280.8000000   -0.007890449028
     52   S     165            79.2700000   -0.031514870532
     52   S     166            25.5900000   -0.096910008320
     52   S     167             8.9970000   -0.220541526288
     52   S     168             3.3190000   -0.296069112937
     52   S     169             0.3643000    1.040503432950

     53   S     170             0.9059000    1.000000000000

     54   S     171             0.1285000    1.000000000000

     55   P     172            18.7100000    0.039426387165
     55   P     173             4.1330000    0.244088984924
     55   P     174             1.2000000    0.815492008943

     56   P     175             0.3827000    1.000000000000

     57   P     176             0.1209000    1.000000000000

     58   D     177             1.0970000    1.000000000000

     59   D     178             0.3180000    1.000000000000

     60   F     179             0.7610000    1.000000000000

 H         

     61   S     180            33.8700000    0.025494863235
     61   S     181             5.0950000    0.190362765893
     61   S     182             1.1590000    0.852162022245

     62   S     183             0.3258000    1.000000000000

     63   S     184             0.1027000    1.000000000000

     64   P     185             1.4070000    1.000000000000

     65   P     186             0.3880000    1.000000000000

     66   D     187             1.0570000    1.000000000000

 H         

     67   S     188            33.8700000    0.025494863235
     67   S     189             5.0950000    0.190362765893
     67   S     190             1.1590000    0.852162022245

     68   S     191             0.3258000    1.000000000000

     69   S     192             0.1027000    1.000000000000

     70   P     193             1.4070000    1.000000000000

     71   P     194             0.3880000    1.000000000000

     72   D     195             1.0570000    1.000000000000

 H         

     73   S     196            33.8700000    0.025494863235
     73   S     197             5.0950000    0.190362765893
     73   S     198             1.1590000    0.852162022245

     74   S     199             0.3258000    1.000000000000

     75   S     200             0.1027000    1.000000000000

     76   P     201             1.4070000    1.000000000000

     77   P     202             0.3880000    1.000000000000

     78   D     203             1.0570000    1.000000000000

 H         

     79   S     204            33.8700000    0.025494863235
     79   S     205             5.0950000    0.190362765893
     79   S     206             1.1590000    0.852162022245

     80   S     207             0.3258000    1.000000000000

     81   S     208             0.1027000    1.000000000000

     82   P     209             1.4070000    1.000000000000

     83   P     210             0.3880000    1.000000000000

     84   D     211             1.0570000    1.000000000000

 H         

     85   S     212            33.8700000    0.025494863235
     85   S     213             5.0950000    0.190362765893
     85   S     214             1.1590000    0.852162022245

     86   S     215             0.3258000    1.000000000000

     87   S     216             0.1027000    1.000000000000

     88   P     217             1.4070000    1.000000000000

     89   P     218             0.3880000    1.000000000000

     90   D     219             1.0570000    1.000000000000

 H         

     91   S     220            33.8700000    0.025494863235
     91   S     221             5.0950000    0.190362765893
     91   S     222             1.1590000    0.852162022245

     92   S     223             0.3258000    1.000000000000

     93   S     224             0.1027000    1.000000000000

     94   P     225             1.4070000    1.000000000000

     95   P     226             0.3880000    1.000000000000

     96   D     227             1.0570000    1.000000000000

 H         

     97   S     228            33.8700000    0.025494863235
     97   S     229             5.0950000    0.190362765893
     97   S     230             1.1590000    0.852162022245

     98   S     231             0.3258000    1.000000000000

     99   S     232             0.1027000    1.000000000000

    100   P     233             1.4070000    1.000000000000

    101   P     234             0.3880000    1.000000000000

    102   D     235             1.0570000    1.000000000000

 H         

    103   S     236            33.8700000    0.025494863235
    103   S     237             5.0950000    0.190362765893
    103   S     238             1.1590000    0.852162022245

    104   S     239             0.3258000    1.000000000000

    105   S     240             0.1027000    1.000000000000

    106   P     241             1.4070000    1.000000000000

    107   P     242             0.3880000    1.000000000000

    108   D     243             1.0570000    1.000000000000

 H         

    109   S     244            33.8700000    0.025494863235
    109   S     245             5.0950000    0.190362765893
    109   S     246             1.1590000    0.852162022245

    110   S     247             0.3258000    1.000000000000

    111   S     248             0.1027000    1.000000000000

    112   P     249             1.4070000    1.000000000000

    113   P     250             0.3880000    1.000000000000

    114   D     251             1.0570000    1.000000000000

 TOTAL NUMBER OF BASIS SET SHELLS             =  114
 NUMBER OF CARTESIAN GAUSSIAN BASIS FUNCTIONS =  354
 NOTE: THIS RUN WILL RESTRICT THE MO VARIATION SPACE TO SPHERICAL HARMONICS.
 THE NUMBER OF ORBITALS KEPT IN THE VARIATIONAL SPACE WILL BE PRINTED LATER.
 NUMBER OF ELECTRONS                          =  104
 CHARGE OF MOLECULE                           =    3
 SPIN MULTIPLICITY                            =    1
 NUMBER OF OCCUPIED ORBITALS (ALPHA)          =   52
 NUMBER OF OCCUPIED ORBITALS (BETA )          =   52
 TOTAL NUMBER OF ATOMS                        =   15
 THE NUCLEAR REPULSION ENERGY IS      620.1174784662
 NOTE THIS RUN IS USING CORE POTENTIALS, AND THE NUMBER OF ELECTRONS,
 OCCUPIED ORBITALS, AND NUCLEAR REPULSION ENERGY WILL BE ADJUSTED BELOW
 AFTER REMOVAL OF THE CORE CHARGES.

     $CONTRL OPTIONS
     ---------------
 SCFTYP=RHF          RUNTYP=OPTIMIZE     EXETYP=RUN     
 MPLEVL=       2     CITYP =NONE         CCTYP =NONE         VBTYP =NONE    
 DFTTYP=NONE         TDDFT =NONE    
 MULT  =       1     ICHARG=       3     NZVAR =      39     COORD =UNIQUE  
 PP    =READ         RELWFN=NONE         LOCAL =NONE         NUMGRD=       F
 ISPHER=       1     NOSYM =       0     MAXIT =     200     UNITS =ANGS    
 PLTORB=       F     MOLPLT=       F     AIMPAC=       F     FRIEND=        
 NPRINT=       7     IREST =       0     GEOM  =INPUT   
 NORMF =       0     NORMP =       0     ITOL  =      20     ICUT  =      11
 INTTYP=BEST         GRDTYP=BEST         QMTTOL= 1.0E-06

     $SYSTEM OPTIONS
     ---------------
  REPLICATED MEMORY=   300000000 WORDS (ON EVERY NODE).
 DISTRIBUTED MEMDDI=         300 MILLION WORDS IN AGGREGATE,
 MEMDDI DISTRIBUTED OVER  16 PROCESSORS IS    18750000 WORDS/PROCESSOR.
 TOTAL MEMORY REQUESTED ON EACH PROCESSOR=   318750000 WORDS.
 TIMLIM=      525600.00 MINUTES, OR     365.0 DAYS.
 PARALL= T  BALTYP=  DLB     KDIAG=    0  COREFL= F
 MXSEQ2=     300 MXSEQ3=     150  mem10=         0

          --------------
          ECP POTENTIALS
          --------------

 PARAMETERS FOR "LA-ECP  " ON ATOM    1 WITH ZCORE  46 AND LMAX  4 ARE
 FOR L= 4      COEFF    N           ZETA
    1       -2.85665    1        1.42345
 FOR L= 0      COEFF    N           ZETA
    1        8.85347    0       22.29739
    2      -68.41778    2        1.64320
    3      110.12463    2        1.85122
 FOR L= 1      COEFF    N           ZETA
    1        2.98675    0        1.77635
    2      -35.51815    2        3.98941
    3       53.65423    2        2.47524
 FOR L= 2      COEFF    N           ZETA
    1        1.67298    0        1.52169
    2       18.46625    2        1.52182
 FOR L= 3      COEFF    N           ZETA
    1       -4.64430    1        2.67762
    2      -14.43101    1       10.06608

 THE ECP RUN REMOVES   46 CORE ELECTRONS, AND THE SAME NUMBER OF PROTONS.
 NUMBER OF ELECTRONS KEPT IN THE CALCULATION IS =   58
 NUMBER OF OCCUPIED ORBITALS (ALPHA) KEPT IS    =   29
 NUMBER OF OCCUPIED ORBITALS (BETA ) KEPT IS    =   29
 THE ADJUSTED NUCLEAR REPULSION ENERGY=      325.0711761090
          ECP ANGULAR INTS.........     0.02 SECONDS

          ----------------
          PROPERTIES INPUT
          ----------------

     MOMENTS            FIELD           POTENTIAL          DENSITY
 IEMOM =       1   IEFLD =       0   IEPOT =       0   IEDEN =       0
 WHERE =COMASS     WHERE =NUCLEI     WHERE =NUCLEI     WHERE =NUCLEI  
 OUTPUT=BOTH       OUTPUT=BOTH       OUTPUT=BOTH       OUTPUT=BOTH    
 IEMINT=       0   IEFINT=       0                     IEDINT=       0
                                                       MORB  =       0
          EXTRAPOLATION IN EFFECT
          SOSCF IN EFFECT
 ORBITAL PRINTING OPTION: NPREO=     1   354     2     1

     -------------------------------
     INTEGRAL TRANSFORMATION OPTIONS
     -------------------------------
     NWORD  =            0
     CUTOFF = 1.0E-09     MPTRAN =       0
     DIRTRF =       T     AOINTS =DUP     

          ----------------------
          INTEGRAL INPUT OPTIONS
          ----------------------
 NOPK  =       1 NORDER=       0 SCHWRZ=       T

          -----------------------
          MP2 CONTROL INFORMATION
          -----------------------
          NACORE =       13  NBCORE =       13
          LMOMP2 =        F  AOINTS = DUP     
          METHOD =        2  NWORD  =               0
          MP2PRP =        F  OSPT   = NONE    
          CUTOFF = 1.00E-09  CPHFBS = BASISAO 
          CODE   = DDI     

          NUMBER OF CORE -A-  ORBITALS =    13
          NUMBER OF CORE -B-  ORBITALS =    13
          NUMBER OF OCC. -A-  ORBITALS =    29
          NUMBER OF OCC. -B-  ORBITALS =    29
          NUMBER OF MOLECULAR ORBITALS =   354
          NUMBER OF   BASIS  FUNCTIONS =   354

 
 
 -----------------------------------------------
  STATISTICS ON AUTOMATIC COORDINATE GENERATION 
 -----------------------------------------------
  NUMBER OF USER SPECIFIED BONDS                              0
  NUMBER OF BONDS                                            14
  NUMBER OF ANGLES                                           25
  NUMBER OF TORSIONS                                         30
  NUMBER OF EXTRA COORD.                                      0
  NUMBER OF EXTRA COORD. FOR CONSTRAINTS                      0
  NUMBER OF CONSTRAINED COORD.                                1
 
  TOTAL NUMBER OF PRIMITIVES                                 69
 -----------------------------------------------

   --- ENCODED Z MATRIX ---
 COORD  TYPE   I   J   K   L   M   N
    1      1    1   3
    2      1    2   4
    3      1    2   3
    4      1    2   6
    5      1    2   5
    6      1    4   8
    7      1    4   7
    8      1    4   9
    9      1    5  12
   10      1    5  11
   11      1    5  10
   12      1    6  15
   13      1    6  14
   14      1    6  13
   15      2    1   3   2
   16      2    2   5  11
   17      2    2   4   8
   18      2    2   6  13
   19      2    2   6  14
   20      2    2   4   9
   21      2    2   5  12
   22      2    2   5  10
   23      2    2   4   7
   24      2    2   6  15
   25      2    3   2   4
   26      2    3   2   5
   27      2    3   2   6
   28      2    4   2   6
   29      2    4   2   5
   30      2    5   2   6
   31      2    7   4   9
   32      2    7   4   8
   33      2    8   4   9
   34      2   10   5  11
   35      2   10   5  12
   36      2   11   5  12
   37      2   13   6  14
   38      2   13   6  15
   39      2   14   6  15
   40      3    1   3   2   5
   41      3    1   3   2   4
   42      3    1   3   2   6
   43      3    3   2   4   8
   44      3    3   2   6  15
   45      3    3   2   6  14
   46      3    3   2   4   7
   47      3    3   2   5  10
   48      3    3   2   6  13
   49      3    3   2   5  11
   50      3    3   2   5  12
   51      3    3   2   4   9
   52      3    4   2   6  15
   53      3    4   2   6  14
   54      3    4   2   5  10
   55      3    4   2   6  13
   56      3    4   2   5  12
   57      3    4   2   5  11
   58      3    5   2   6  15
   59      3    5   2   6  14
   60      3    5   2   4   7
   61      3    5   2   6  13
   62      3    5   2   4   9
   63      3    5   2   4   8
   64      3    6   2   4   7
   65      3    6   2   5  10
   66      3    6   2   5  11
   67      3    6   2   5  12
   68      3    6   2   4   9
   69      3    6   2   4   8

          INDEP./SYM. INTERNAL COORDINATES
          --------------------------------
 CRD  1=   1.0000 (  1)
 CRD  2=   0.1268 ( 20)  0.1220 ( 22)  0.1257 ( 24)  0.1613 ( 25)  0.2165 ( 26)
          -0.3779 ( 27)  0.2799 ( 28) -0.4885 ( 29)  0.2086 ( 30)  0.1777 ( 40)
          -0.1956 ( 41) -0.1338 ( 46)  0.1277 ( 50) -0.1042 ( 51)  0.1231 ( 52)
           0.1629 ( 53) -0.1398 ( 58) -0.1690 ( 61) -0.1248 ( 65) -0.1559 ( 66)
           0.1035 ( 68)  0.1450 ( 69)
 CRD  3=  -0.2564 (  2)  0.2326 (  5)  0.3977 ( 15)  0.1947 ( 18) -0.1840 ( 19)
          -0.1394 ( 20)  0.1617 ( 22) -0.3412 ( 28)  0.3761 ( 30)  0.1499 ( 40)
           0.1117 ( 41) -0.2616 ( 42)  0.1551 ( 44) -0.1047 ( 57) -0.1109 ( 63)
           0.1239 ( 64)  0.1305 ( 65)  0.1240 ( 67)  0.1311 ( 68)
 CRD  4=  -0.1669 (  2)  0.3911 (  4) -0.2242 (  5)  0.1378 ( 18)  0.1650 ( 19)
          -0.2204 ( 21) -0.2120 ( 23) -0.1086 ( 25) -0.1458 ( 26)  0.2543 ( 27)
          -0.1531 ( 29) -0.1237 ( 37)  0.1477 ( 40) -0.1634 ( 41)  0.2438 ( 43)
           0.1971 ( 46) -0.1509 ( 47) -0.2211 ( 49) -0.1842 ( 50)  0.1723 ( 51)
           0.1503 ( 54)  0.1171 ( 56) -0.1265 ( 60) -0.1513 ( 62)  0.1030 ( 65)
          -0.1161 ( 68)
 CRD  5=  -0.3965 (  2) -0.3965 (  4) -0.3965 (  5) -0.2736 ( 16) -0.2736 ( 17)
          -0.2736 ( 24)  0.1192 ( 32)  0.1193 ( 33)  0.1192 ( 34)  0.1191 ( 36)
           0.1191 ( 38)  0.1192 ( 39) -0.1211 ( 54)  0.1211 ( 55) -0.1211 ( 59)
           0.1211 ( 62) -0.1211 ( 64)  0.1211 ( 67)
 CRD  6=  -0.2467 (  2) -0.3433 (  3) -0.2465 (  4) -0.2459 (  5)  0.2310 ( 16)
           0.2314 ( 17) -0.2133 ( 18) -0.2126 ( 19) -0.2127 ( 20) -0.2132 ( 21)
          -0.2121 ( 22) -0.2138 ( 23)  0.2310 ( 24)  0.1638 ( 31)  0.1635 ( 35)
           0.1637 ( 37)  0.1289 ( 54) -0.1289 ( 55)  0.1288 ( 59) -0.1288 ( 62)
           0.1289 ( 64) -0.1287 ( 67)
 CRD  7=   0.3680 (  2) -0.3367 (  5) -0.1100 ( 13)  0.1089 ( 14)  0.1475 ( 15)
          -0.1971 ( 16)  0.2142 ( 17)  0.3758 ( 18) -0.3889 ( 19) -0.1014 ( 20)
          -0.2744 ( 21)  0.1573 ( 22)  0.2306 ( 23) -0.1918 ( 32)  0.1987 ( 36)
          -0.1262 ( 38)  0.1482 ( 39)
 CRD  8=   0.1398 (  2) -0.3200 (  4)  0.1805 (  5)  0.1961 ( 16)  0.1492 ( 17)
           0.3541 ( 20) -0.3425 ( 21)  0.3207 ( 22) -0.3686 ( 23) -0.3470 ( 24)
          -0.1897 ( 33) -0.1979 ( 34)  0.1547 ( 38)  0.1334 ( 39)
 CRD  9=  -0.1266 (  2)  0.1152 (  5) -0.3137 ( 15) -0.4056 ( 16)  0.4464 ( 17)
          -0.2804 ( 20)  0.2253 ( 21)  0.2602 ( 22) -0.2542 ( 23)  0.2151 ( 31)
          -0.1956 ( 35) -0.1046 ( 53)  0.1048 ( 56) -0.1048 ( 59)  0.1063 ( 67)
 CRD 10=  -0.3704 ( 18)  0.3708 ( 19) -0.3714 ( 20) -0.3698 ( 21)  0.3711 ( 22)
           0.3703 ( 23) -0.1315 ( 32)  0.1311 ( 33) -0.1307 ( 34)  0.1314 ( 36)
           0.1312 ( 38) -0.1311 ( 39)
 CRD 11=   0.1012 ( 11)  0.1412 ( 12) -0.2925 ( 16) -0.2178 ( 17) -0.2798 ( 18)
          -0.2434 ( 19)  0.3030 ( 20)  0.3235 ( 22)  0.5096 ( 24)  0.1171 ( 32)
          -0.1326 ( 35)  0.1249 ( 36)  0.2309 ( 37) -0.1077 ( 39)
 CRD 12=   0.7678 (  3)  0.1064 (  6)  0.1053 ( 10)  0.1057 ( 12)  0.2242 ( 16)
           0.2267 ( 17) -0.1102 ( 18) -0.1076 ( 19) -0.1087 ( 20) -0.1084 ( 21)
          -0.1088 ( 22) -0.1102 ( 23)  0.2253 ( 24)  0.1159 ( 31)  0.1151 ( 35)
           0.1154 ( 37)
 CRD 13=  -0.1716 (  2)  0.1556 (  5) -0.1298 (  6)  0.1185 ( 10) -0.4030 ( 15)
           0.2459 ( 16) -0.2696 ( 17)  0.2612 ( 18) -0.2687 ( 19) -0.1842 ( 21)
           0.1204 ( 22)  0.1482 ( 23) -0.2038 ( 25)  0.1852 ( 26)  0.1311 ( 28)
          -0.1448 ( 30)  0.1669 ( 33) -0.1707 ( 34) -0.1135 ( 38) -0.1130 ( 52)
          -0.1362 ( 53)  0.1049 ( 54) -0.1350 ( 55)  0.1167 ( 56) -0.1063 ( 58)
          -0.1295 ( 59)  0.1022 ( 60) -0.1283 ( 61)
 CRD 14=  -0.2088 ( 43) -0.2088 ( 44) -0.1810 ( 45) -0.1812 ( 46) -0.1809 ( 47)
          -0.1810 ( 48) -0.2087 ( 49) -0.1808 ( 50) -0.1812 ( 51) -0.2088 ( 52)
          -0.1810 ( 53) -0.1810 ( 54) -0.1811 ( 55) -0.1809 ( 56) -0.2088 ( 57)
          -0.2088 ( 58) -0.1810 ( 59) -0.1811 ( 60) -0.1811 ( 61) -0.1811 ( 62)
          -0.2087 ( 63) -0.1811 ( 64) -0.1809 ( 65) -0.2087 ( 66) -0.1809 ( 67)
          -0.1811 ( 68) -0.2088 ( 69)
 CRD 15=   0.1100 (  7)  0.1365 (  9) -0.1990 ( 13) -0.1944 ( 14) -0.1054 ( 39)
          -0.2654 ( 43) -0.2450 ( 46)  0.2426 ( 47)  0.2410 ( 49)  0.2184 ( 50)
          -0.2630 ( 51)  0.1768 ( 54)  0.1525 ( 56)  0.1752 ( 57) -0.1753 ( 60)
          -0.1933 ( 62) -0.1957 ( 63) -0.1874 ( 64)  0.1930 ( 65)  0.1914 ( 66)
           0.1687 ( 67) -0.2054 ( 68) -0.2078 ( 69)
 CRD 16=   0.3960 (  6)  0.3476 (  7)  0.3097 (  8) -0.3159 (  9) -0.3433 ( 10)
          -0.2563 ( 11)  0.1066 ( 16) -0.1226 ( 17) -0.1763 ( 20)  0.1151 ( 21)
           0.1638 ( 22) -0.1445 ( 23)  0.1838 ( 31)  0.1219 ( 32)  0.1402 ( 33)
          -0.1277 ( 34) -0.1598 ( 35) -0.1000 ( 36)
 CRD 17=   0.1702 (  6)  0.1810 (  8)  0.1568 (  9)  0.2611 ( 10)  0.2466 ( 11)
          -0.4309 ( 12) -0.3246 ( 13) -0.3374 ( 14)  0.1619 ( 18)  0.1714 ( 19)
          -0.1325 ( 21) -0.1015 ( 23)  0.1235 ( 24)  0.1181 ( 35) -0.1945 ( 37)
          -0.1296 ( 38) -0.1350 ( 39) -0.1000 ( 54)  0.1051 ( 60)  0.1096 ( 62)
           0.1034 ( 63)  0.1018 ( 68)
 CRD 18=  -0.1007 (  2) -0.1008 (  4) -0.1007 (  5) -0.2692 (  6) -0.3024 (  7)
          -0.3023 (  8) -0.3026 (  9) -0.2691 ( 10) -0.3024 ( 11) -0.2695 ( 12)
          -0.3028 ( 13) -0.3027 ( 14)  0.1121 ( 16)  0.1121 ( 17)  0.1014 ( 18)
           0.1015 ( 19)  0.1013 ( 20)  0.1013 ( 21)  0.1014 ( 22)  0.1012 ( 23)
           0.1122 ( 24) -0.1067 ( 31) -0.1049 ( 32) -0.1050 ( 33) -0.1049 ( 34)
          -0.1069 ( 35) -0.1049 ( 36) -0.1070 ( 37) -0.1049 ( 38) -0.1050 ( 39)
 CRD 19=  -0.1502 (  2)  0.1362 (  5) -0.1677 (  7) -0.2759 (  8)  0.1280 (  9)
           0.2740 ( 11) -0.1068 ( 13)  0.1484 ( 14) -0.1982 ( 15) -0.1087 ( 43)
           0.2544 ( 44)  0.2393 ( 45) -0.1019 ( 46) -0.1375 ( 47)  0.2395 ( 48)
          -0.1459 ( 49) -0.1368 ( 50) -0.1027 ( 51)  0.2121 ( 52)  0.1970 ( 53)
           0.1972 ( 55) -0.1059 ( 57)  0.2156 ( 58)  0.2004 ( 59)  0.2007 ( 61)
          -0.1031 ( 64) -0.1310 ( 65) -0.1394 ( 66) -0.1303 ( 67) -0.1038 ( 68)
          -0.1098 ( 69)
 CRD 20=   0.1947 (  6) -0.2688 (  8)  0.2751 ( 10) -0.2896 ( 11) -0.4800 ( 12)
           0.2109 ( 13)  0.2501 ( 14)  0.1489 ( 32) -0.1397 ( 35)  0.1603 ( 36)
           0.2437 ( 37) -0.1151 ( 38) -0.1366 ( 39) -0.1334 ( 45)  0.1299 ( 48)
          -0.1396 ( 53)  0.1237 ( 55) -0.1265 ( 59)  0.1368 ( 61)
 CRD 21=  -0.4062 (  6)  0.2854 (  7) -0.3076 (  9)  0.3669 ( 10) -0.2704 ( 13)
           0.2295 ( 14)  0.2098 ( 31) -0.1593 ( 33)  0.1701 ( 34) -0.1893 ( 35)
           0.1419 ( 38) -0.1182 ( 39)  0.1210 ( 44) -0.1019 ( 46)  0.1116 ( 47)
           0.1194 ( 51)  0.1241 ( 52)  0.1062 ( 54)  0.1234 ( 58) -0.1074 ( 60)
           0.1139 ( 62)  0.1137 ( 65)  0.1227 ( 68)
 CRD 22=  -0.3846 (  6)  0.1856 (  7)  0.1661 (  8)  0.1605 (  9) -0.3812 ( 10)
           0.1877 ( 11) -0.3766 ( 12)  0.1813 ( 13)  0.1624 ( 14)  0.1955 ( 31)
          -0.1036 ( 33)  0.1937 ( 35) -0.1048 ( 36)  0.1914 ( 37) -0.1014 ( 38)
          -0.1015 ( 45) -0.1036 ( 46) -0.1022 ( 47)  0.1049 ( 48)  0.1067 ( 50)
           0.1072 ( 51) -0.1174 ( 54)  0.1202 ( 55) -0.1168 ( 59)  0.1224 ( 62)
          -0.1188 ( 64)  0.1220 ( 67)
 CRD 23=  -0.3134 (  7)  0.3284 (  8)  0.3223 (  9) -0.3127 ( 11) -0.3143 ( 13)
           0.3254 ( 14) -0.1765 ( 32)  0.1680 ( 33) -0.1731 ( 34)  0.1677 ( 36)
           0.1685 ( 38) -0.1747 ( 39)  0.1256 ( 43)  0.1255 ( 44)  0.1242 ( 49)
           0.1261 ( 52)  0.1237 ( 57)  0.1250 ( 58)  0.1260 ( 63)  0.1247 ( 66)
           0.1250 ( 69)
 CRD 24=  -0.4046 (  7)  0.3152 (  8) -0.3883 (  9)  0.1227 ( 10)  0.2625 ( 11)
          -0.2075 ( 12)  0.1447 ( 13) -0.1747 ( 32)  0.2282 ( 33)  0.2199 ( 34)
          -0.1441 ( 36)  0.1202 ( 37)  0.1160 ( 43)  0.1287 ( 47) -0.1052 ( 49)
          -0.1271 ( 51)  0.1422 ( 54) -0.1409 ( 62)  0.1022 ( 63)  0.1362 ( 65)
          -0.1367 ( 68)  0.1064 ( 69)
 CRD 25=   0.2477 (  6) -0.2345 (  8) -0.1206 (  9) -0.2216 ( 10)  0.2816 ( 11)
          -0.3378 ( 13)  0.3574 ( 14) -0.1501 ( 31)  0.1580 ( 32)  0.1343 ( 35)
          -0.1856 ( 36)  0.2077 ( 38) -0.2220 ( 39) -0.1376 ( 45)  0.1311 ( 46)
          -0.1217 ( 48)  0.1439 ( 50) -0.1533 ( 53) -0.1374 ( 55)  0.1456 ( 56)
          -0.1550 ( 59)  0.1294 ( 60) -0.1391 ( 61)  0.1468 ( 64)  0.1614 ( 67)
 CRD 26=  -0.1100 (  2)  0.2577 (  4) -0.1478 (  5) -0.2387 (  7) -0.2619 (  9)
           0.1286 ( 12)  0.2568 ( 13)  0.2318 ( 14)  0.1618 ( 18)  0.1845 ( 19)
          -0.2099 ( 21) -0.1959 ( 23)  0.1040 ( 24) -0.1225 ( 27) -0.1079 ( 28)
           0.1883 ( 29)  0.1577 ( 32)  0.1272 ( 35)  0.1643 ( 36) -0.2224 ( 37)
          -0.1045 ( 38) -0.1246 ( 39) -0.1345 ( 40)  0.1490 ( 41) -0.1477 ( 43)
           0.1342 ( 49) -0.1412 ( 54) -0.1196 ( 56)  0.1255 ( 60)  0.1415 ( 62)
 CRD 27=   0.4667 (  3) -0.2684 (  6) -0.2679 ( 10) -0.2681 ( 12) -0.1524 ( 16)
          -0.1528 ( 17) -0.1526 ( 24)  0.1599 ( 32)  0.1605 ( 33)  0.1599 ( 34)
           0.1596 ( 36)  0.1596 ( 38)  0.1603 ( 39) -0.1010 ( 52)  0.1758 ( 54)
          -0.1756 ( 55)  0.1008 ( 57)  0.1008 ( 58)  0.1759 ( 59) -0.1758 ( 62)
          -0.1007 ( 63)  0.1756 ( 64) -0.1011 ( 66) -0.1758 ( 67)  0.1010 ( 69)
 CRD 28=   0.1304 (  6)  0.1623 (  7)  0.2597 (  8) -0.1262 (  9) -0.1188 ( 10)
          -0.2569 ( 11) -0.1338 ( 14) -0.2145 ( 15) -0.1449 ( 16)  0.1592 ( 17)
           0.2158 ( 20) -0.1368 ( 21) -0.2073 ( 22)  0.1632 ( 23) -0.1669 ( 25)
           0.1512 ( 26) -0.2276 ( 31) -0.1184 ( 32) -0.1942 ( 33)  0.1929 ( 34)
           0.2065 ( 35)  0.1037 ( 38) -0.1235 ( 42) -0.1100 ( 43)  0.2577 ( 44)
           0.1839 ( 45) -0.1153 ( 47)  0.1855 ( 48) -0.1477 ( 49)
 CRD 29=  -0.3201 (  2)  0.1840 (  3) -0.3202 (  4) -0.3197 (  5)  0.1796 (  7)
           0.1793 (  8)  0.1796 (  9)  0.1792 ( 11)  0.1794 ( 13)  0.1796 ( 14)
           0.1222 ( 16)  0.1223 ( 17)  0.1570 ( 18)  0.1569 ( 19)  0.1569 ( 20)
           0.1568 ( 21)  0.1568 ( 22)  0.1569 ( 23)  0.1223 ( 24) -0.2242 ( 31)
          -0.1057 ( 32) -0.1055 ( 33) -0.1052 ( 34) -0.2241 ( 35) -0.1055 ( 36)
          -0.2242 ( 37) -0.1056 ( 38) -0.1055 ( 39)
 CRD 30=  -0.2344 (  2)  0.5490 (  4) -0.3149 (  5)  0.1583 (  8)  0.1113 ( 10)
           0.1719 ( 11) -0.1943 ( 12) -0.1427 ( 13) -0.1600 ( 14)  0.1080 ( 16)
          -0.1857 ( 18) -0.1821 ( 19)  0.1231 ( 22) -0.1884 ( 24) -0.1556 ( 33)
          -0.1778 ( 34)  0.1679 ( 37)  0.2035 ( 38)  0.1902 ( 39)
 CRD 31=  -0.1876 (  3) -0.1767 (  6) -0.1765 ( 10) -0.1766 ( 12)  0.1279 ( 16)
           0.1278 ( 17)  0.1278 ( 24)  0.1001 ( 26)  0.1000 ( 27) -0.1360 ( 31)
          -0.1359 ( 35) -0.1359 ( 37)  0.1286 ( 45)  0.1280 ( 46)  0.1283 ( 47)
          -0.1279 ( 48) -0.1282 ( 50) -0.1285 ( 51)  0.1325 ( 52)  0.2612 ( 53)
          -0.2610 ( 56) -0.1332 ( 57) -0.1332 ( 58)  0.2609 ( 60) -0.2609 ( 61)
           0.1332 ( 63)  0.2613 ( 65)  0.1326 ( 66) -0.2612 ( 68) -0.1324 ( 69)
 CRD 32=  -0.4616 (  2)  0.4188 (  5)  0.1576 (  6)  0.1536 (  7) -0.1743 (  9)
          -0.1430 ( 10) -0.1950 ( 13)  0.1810 ( 14)  0.1249 ( 15) -0.1040 ( 16)
           0.1148 ( 17)  0.1137 ( 20) -0.1088 ( 21) -0.1021 ( 22)  0.1186 ( 23)
           0.1015 ( 25) -0.1999 ( 32)  0.2081 ( 36) -0.1305 ( 38)  0.1562 ( 39)
           0.1029 ( 43) -0.2413 ( 44)  0.1383 ( 49) -0.1041 ( 52) -0.1022 ( 58)
 CRD 33=   0.2306 (  7) -0.2309 (  8) -0.2311 (  9)  0.2314 ( 11)  0.2313 ( 13)
          -0.2308 ( 14) -0.1771 ( 32)  0.1769 ( 33) -0.1772 ( 34)  0.1775 ( 36)
           0.1774 ( 38) -0.1771 ( 39)  0.1514 ( 43)  0.1515 ( 44) -0.1131 ( 45)
          -0.1134 ( 46) -0.1132 ( 47) -0.1136 ( 48)  0.1517 ( 49) -0.1137 ( 50)
          -0.1130 ( 51)  0.1516 ( 52) -0.1130 ( 53) -0.1131 ( 54) -0.1135 ( 55)
          -0.1136 ( 56)  0.1517 ( 57)  0.1515 ( 58) -0.1131 ( 59) -0.1135 ( 60)
          -0.1136 ( 61) -0.1131 ( 62)  0.1513 ( 63) -0.1135 ( 64) -0.1131 ( 65)
           0.1517 ( 66) -0.1136 ( 67) -0.1131 ( 68)  0.1513 ( 69)
 CRD 34=   0.1302 (  6)  0.1130 (  7) -0.2281 (  8)  0.1586 ( 10) -0.2278 ( 11)
          -0.2880 ( 12)  0.1145 ( 13)  0.1398 ( 14)  0.1065 ( 20)  0.1061 ( 22)
           0.1369 ( 29) -0.1847 ( 32)  0.1140 ( 35) -0.1870 ( 36) -0.2071 ( 37)
           0.1116 ( 38)  0.1309 ( 39)  0.1042 ( 43)  0.1807 ( 45) -0.1751 ( 46)
          -0.1670 ( 48)  0.1855 ( 50)  0.1437 ( 53) -0.2040 ( 55)  0.1667 ( 56)
          -0.1148 ( 57)  0.2174 ( 59) -0.1603 ( 60) -0.1303 ( 61)  0.1190 ( 63)
          -0.1930 ( 64)  0.2075 ( 67)
 CRD 35=  -0.2877 (  6)  0.1939 (  7) -0.1980 (  9)  0.2679 ( 10) -0.1529 ( 13)
           0.1348 ( 14)  0.1003 ( 17) -0.1000 ( 28)  0.1068 ( 30) -0.2082 ( 31)
           0.1707 ( 33) -0.1723 ( 34)  0.1937 ( 35) -0.1183 ( 38)  0.1014 ( 39)
           0.1308 ( 46) -0.2149 ( 47)  0.1081 ( 48)  0.1094 ( 50) -0.2174 ( 51)
          -0.2478 ( 54)  0.1205 ( 55)  0.1170 ( 61) -0.2508 ( 62)  0.1550 ( 64)
          -0.1941 ( 65)  0.1302 ( 67) -0.1933 ( 68)
 CRD 36=   0.1496 (  4)  0.2432 (  7) -0.1483 (  8)  0.2410 (  9) -0.1106 ( 10)
          -0.1140 ( 11)  0.1941 ( 12) -0.1290 ( 13)  0.1011 ( 20) -0.1164 ( 21)
          -0.1230 ( 23) -0.1085 ( 24)  0.1261 ( 29) -0.1193 ( 32)  0.1760 ( 33)
           0.1719 ( 34)  0.1739 ( 37)  0.1196 ( 43) -0.1201 ( 45)  0.1829 ( 47)
           0.1414 ( 48) -0.1082 ( 49) -0.1750 ( 51) -0.1661 ( 53) -0.1049 ( 56)
          -0.2470 ( 57)  0.1634 ( 61)  0.2654 ( 63) -0.2083 ( 66)  0.2365 ( 69)
 CRD 37=  -0.2303 (  2)  0.2092 (  5) -0.1116 (  6)  0.1656 (  8)  0.1013 ( 10)
          -0.1871 ( 11)  0.1929 ( 13) -0.2072 ( 14)  0.1436 ( 18) -0.1423 ( 19)
           0.1189 ( 25) -0.1078 ( 26)  0.1370 ( 28) -0.1511 ( 30) -0.1218 ( 31)
           0.1106 ( 35) -0.1125 ( 36)  0.1483 ( 38) -0.1532 ( 39)  0.1514 ( 42)
          -0.2085 ( 45)  0.1706 ( 46) -0.1935 ( 48)  0.1920 ( 50)  0.2690 ( 52)
           0.1062 ( 56) -0.1191 ( 57)  0.2763 ( 58)  0.1198 ( 60) -0.1213 ( 65)
          -0.1926 ( 66) -0.1311 ( 68) -0.1573 ( 69)
 CRD 38=  -0.6703 ( 15)  0.3032 ( 25) -0.2750 ( 26) -0.2449 ( 28)  0.2701 ( 30)
          -0.1297 ( 44) -0.1525 ( 45)  0.1137 ( 47) -0.1576 ( 48) -0.1221 ( 56)
          -0.1120 ( 57) -0.1234 ( 60) -0.1070 ( 63)
 CRD 39=  -0.5775 ( 40) -0.5772 ( 41) -0.5774 ( 42)

 THE DETERMINANT OF THE G MATRIX IS 10**(   -13)


                     --------------------
                     INTERNAL COORDINATES
                     --------------------

                 - - ATOMS - -         COORDINATE      COORDINATE
 NO.   TYPE    I  J  K  L  M  N        (BOHR,RAD)       (ANG,DEG)
 ----------------------------------------------------------------
   1 STRETCH   1  3                     4.6298287       2.4500000
   2 STRETCH   2  4                     3.3538460       1.7747790
   3 STRETCH   2  3                     3.3196218       1.7566683
   4 STRETCH   2  6                     3.3539733       1.7748464
   5 STRETCH   2  5                     3.3538992       1.7748072
   6 STRETCH   4  8                     2.0679643       1.0943196
   7 STRETCH   4  7                     2.0574453       1.0887532
   8 STRETCH   4  9                     2.0572881       1.0886701
   9 STRETCH   5 12                     2.0573449       1.0887001
  10 STRETCH   5 11                     2.0679960       1.0943364
  11 STRETCH   5 10                     2.0573635       1.0887099
  12 STRETCH   6 15                     2.0678311       1.0942492
  13 STRETCH   6 14                     2.0574193       1.0887395
  14 STRETCH   6 13                     2.0574658       1.0887641
  15 BEND      1  3  2                  3.1407285     179.9504864
  16 BEND      2  5 11                  1.8647629     106.8430437
  17 BEND      2  4  8                  1.8654887     106.8846315
  18 BEND      2  6 13                  1.9363405     110.9441357
  19 BEND      2  6 14                  1.9367673     110.9685932
  20 BEND      2  4  9                  1.9363663     110.9456164
  21 BEND      2  5 12                  1.9367468     110.9674169
  22 BEND      2  5 10                  1.9366586     110.9623649
  23 BEND      2  4  7                  1.9362777     110.9405404
  24 BEND      2  6 15                  1.8648449     106.8477426
  25 BEND      3  2  4                  1.8625915     106.7186329
  26 BEND      3  2  5                  1.8629232     106.7376352
  27 BEND      3  2  6                  1.8629692     106.7402727
  28 BEND      4  2  6                  1.9560829     112.0752918
  29 BEND      4  2  5                  1.9558860     112.0640120
  30 BEND      5  2  6                  1.9557846     112.0582053
  31 BEND      7  4  9                  1.9373963     111.0046285
  32 BEND      7  4  8                  1.8926647     108.4417006
  33 BEND      8  4  9                  1.8931684     108.4705596
  34 BEND     10  5 11                  1.8926604     108.4414529
  35 BEND     10  5 12                  1.9375674     111.0144323
  36 BEND     11  5 12                  1.8929064     108.4555452
  37 BEND     13  6 14                  1.9376724     111.0204481
  38 BEND     13  6 15                  1.8928290     108.4511126
  39 BEND     14  6 15                  1.8928573     108.4527372
  40 TORSION   1  3  2  5               0.6078242      34.8257609
  41 TORSION   1  3  2  4               2.7021086     154.8194185
  42 TORSION   1  3  2  6              -1.4865386     -85.1723900
  43 TORSION   3  2  4  8              -3.1397635    -179.8951976
  44 TORSION   3  2  6 15               3.1406228     179.9444323
  45 TORSION   3  2  6 14              -1.0822197     -62.0066193
  46 TORSION   3  2  4  7              -1.0795371     -61.8529181
  47 TORSION   3  2  5 10              -1.0836507     -62.0886112
  48 TORSION   3  2  6 13               1.0805476      61.9108182
  49 TORSION   3  2  5 11               3.1395369     179.8822159
  50 TORSION   3  2  5 12               1.0791952      61.8333328
  51 TORSION   3  2  4  9               1.0825410      62.0250294
  52 TORSION   4  2  6 15              -1.1093065     -63.5585802
  53 TORSION   4  2  6 14               0.9510363      54.4903681
  54 TORSION   4  2  5 10              -3.1167730    -178.5779384
  55 TORSION   4  2  6 13               3.1138036     178.4078057
  56 TORSION   4  2  5 12              -0.9539271     -54.6559945
  57 TORSION   4  2  5 11               1.1064146      63.3928887
  58 TORSION   5  2  6 15               1.1071274      63.4337280
  59 TORSION   5  2  6 14              -3.1157151    -178.5173236
  60 TORSION   5  2  4  7               0.9537852      54.6478664
  61 TORSION   5  2  6 13              -0.9529478     -54.5998861
  62 TORSION   5  2  4  9               3.1158633     178.5258139
  63 TORSION   5  2  4  8              -1.1064412     -63.3944130
  64 TORSION   6  2  4  7              -3.1130207    -178.3629494
  65 TORSION   6  2  5 10               0.9498725      54.4236833
  66 TORSION   6  2  5 11              -1.1101252     -63.6054896
  67 TORSION   6  2  5 12               3.1127184     178.3456273
  68 TORSION   6  2  4  9              -0.9509427     -54.4850018
  69 TORSION   6  2  4  8               1.1099381      63.5947712

     ------------------------------------------
     THE POINT GROUP IS C1 , NAXIS= 0, ORDER= 1
     ------------------------------------------

 -- VARIATIONAL SPACE WILL BE RESTRICTED TO PURE SPHERICAL HARMONICS ONLY --
 AFTER EXCLUDING CONTAMINANT COMBINATIONS FROM THE CARTESIAN GAUSSIAN BASIS
 SET, THE NUMBER OF SPHERICAL HARMONICS KEPT IN THE VARIATION SPACE IS  316

     DIMENSIONS OF THE SYMMETRY SUBSPACES ARE
 A   =  316

 ..... DONE SETTING UP THE RUN .....
 CPU     0: STEP CPU TIME=     0.09 TOTAL CPU TIME=        0.1 (    0.0 MIN)
 TOTAL WALL CLOCK TIME=        0.2 SECONDS, CPU UTILIZATION IS  56.25%


          -----------------------------
          STATIONARY POINT LOCATION RUN
          -----------------------------


           ** GEOMETRY CONSTRAINTS ARE BEING APPLIED. **

          TRANSFORMING DISPLACEMENT FROM INTERNALS TO CARTESIANS
          THE ROOT MEAN SQUARE ERROR IN ITERATION   1 IS   0.00000000
 WARNING! THE RADIUS IN CARTESIANS IS    0.00000
 OBTAINING INITIAL HESSIAN, HESS=GUESS   
 DIAGONAL GUESS HESSIAN IN INTERNAL COORDS IS
     1  0.2965     2  0.4333     3  0.3624     4  0.4333     5  0.4333
     6  0.3435     7  0.3472     8  0.3473     9  0.3472    10  0.3435
    11  0.3472    12  0.3435    13  0.3472    14  0.3472    15  0.2804
    16  0.2409    17  0.2409    18  0.2412    19  0.2412    20  0.2412
    21  0.2412    22  0.2412    23  0.2412    24  0.2409    25  0.2785
    26  0.2785    27  0.2785    28  0.2914    29  0.2914    30  0.2914
    31  0.2035    32  0.2032    33  0.2033    34  0.2032    35  0.2035
    36  0.2032    37  0.2035    38  0.2032    39  0.2033    40  0.2500
    41  0.2500    42  0.2500    43  0.2500    44  0.2500    45  0.2500
    46  0.2500    47  0.2500    48  0.2500    49  0.2500    50  0.2500
    51  0.2500    52  0.2500    53  0.2500    54  0.2500    55  0.2500
    56  0.2500    57  0.2500    58  0.2500    59  0.2500    60  0.2500
    61  0.2500    62  0.2500    63  0.2500    64  0.2500    65  0.2500
    66  0.2500    67  0.2500    68  0.2500    69  0.2500
 TRANSFORMING HESSIAN TO SYMMETRY COORDINATES

          PARAMETERS CONTROLLING GEOMETRY SEARCH ARE
          METHOD =QA                  UPHESS =BFGS    
          NNEG   =         0          NFRZ   =         0
          NSTEP  =        50          IFOLOW =         1
          HESS   =GUESS               RESTAR =         F
          IHREP  =         0          HSSEND =         F
          NPRT   =         0          NPUN   =         0
          OPTTOL = 1.000E-04          RMIN   = 1.500E-03
          RMAX   = 1.000E-01          RLIM   = 7.000E-02
          DXMAX  = 3.000E-01          PURIFY =         F
          MOVIE  =         F          TRUPD  =         T
          TRMAX  = 5.000E-01          TRMIN  = 5.000E-02
          ITBMAT =         5          STPT   =         F
          STSTEP = 1.000E-02          PROJCT=          T

 BEGINNING GEOMETRY SEARCH POINT NSERCH=   0 ...

 COORDINATES OF ALL ATOMS ARE (ANGS)
   ATOM   CHARGE       X              Y              Z
 ------------------------------------------------------------
 LA         57.0  -0.1739353441   1.1341682690  -4.0490164368
 P          15.0  -0.0280214720   0.2141984524   0.0532292892
 O           8.0  -0.0898339950   0.5984393723  -1.6597861188
 C           6.0  -1.4775133681   0.9266542162   0.7889061646
 C           6.0   1.4645054838   0.9369430857   0.6856404768
 C           6.0  -0.0170914926  -1.5560815955   0.1799920424
 H           1.0  -1.4792620349   2.0094872872   0.6755347666
 H           1.0  -1.4407807718   0.6904514386   1.8567986885
 H           1.0  -2.3819079569   0.4889490822   0.3697556496
 H           1.0   2.3405739724   0.5049759835   0.2048101950
 H           1.0   1.5036912831   0.7003812146   1.7533835007
 H           1.0   1.4512683426   2.0196967605   0.5727814741
 H           1.0   0.8650990071  -1.9752729407  -0.3010752631
 H           1.0  -0.9284729943  -1.9821280835  -0.2362071623
 H           1.0   0.0224186961  -1.7974284200   1.2465621963


                     --------------------
                     INTERNAL COORDINATES
                     --------------------

                 - - ATOMS - -         COORDINATE      COORDINATE
 NO.   TYPE    I  J  K  L  M  N        (BOHR,RAD)       (ANG,DEG)
 ----------------------------------------------------------------
   1 STRETCH   1  3                     4.6298287       2.4500000
   2 STRETCH   2  4                     3.3538460       1.7747790
   3 STRETCH   2  3                     3.3196218       1.7566683
   4 STRETCH   2  6                     3.3539733       1.7748464
   5 STRETCH   2  5                     3.3538992       1.7748072
   6 STRETCH   4  8                     2.0679643       1.0943196
   7 STRETCH   4  7                     2.0574453       1.0887532
   8 STRETCH   4  9                     2.0572881       1.0886701
   9 STRETCH   5 12                     2.0573449       1.0887001
  10 STRETCH   5 11                     2.0679960       1.0943364
  11 STRETCH   5 10                     2.0573635       1.0887099
  12 STRETCH   6 15                     2.0678311       1.0942492
  13 STRETCH   6 14                     2.0574193       1.0887395
  14 STRETCH   6 13                     2.0574658       1.0887641
  15 BEND      1  3  2                  3.1407285     179.9504864
  16 BEND      2  5 11                  1.8647629     106.8430437
  17 BEND      2  4  8                  1.8654887     106.8846315
  18 BEND      2  6 13                  1.9363405     110.9441357
  19 BEND      2  6 14                  1.9367673     110.9685932
  20 BEND      2  4  9                  1.9363663     110.9456164
  21 BEND      2  5 12                  1.9367468     110.9674169
  22 BEND      2  5 10                  1.9366586     110.9623649
  23 BEND      2  4  7                  1.9362777     110.9405404
  24 BEND      2  6 15                  1.8648449     106.8477426
  25 BEND      3  2  4                  1.8625915     106.7186329
  26 BEND      3  2  5                  1.8629232     106.7376352
  27 BEND      3  2  6                  1.8629692     106.7402727
  28 BEND      4  2  6                  1.9560829     112.0752918
  29 BEND      4  2  5                  1.9558860     112.0640120
  30 BEND      5  2  6                  1.9557846     112.0582053
  31 BEND      7  4  9                  1.9373963     111.0046285
  32 BEND      7  4  8                  1.8926647     108.4417006
  33 BEND      8  4  9                  1.8931684     108.4705596
  34 BEND     10  5 11                  1.8926604     108.4414529
  35 BEND     10  5 12                  1.9375674     111.0144323
  36 BEND     11  5 12                  1.8929064     108.4555452
  37 BEND     13  6 14                  1.9376724     111.0204481
  38 BEND     13  6 15                  1.8928290     108.4511126
  39 BEND     14  6 15                  1.8928573     108.4527372
  40 TORSION   1  3  2  5               0.6078242      34.8257609
  41 TORSION   1  3  2  4               2.7021086     154.8194185
  42 TORSION   1  3  2  6              -1.4865386     -85.1723900
  43 TORSION   3  2  4  8              -3.1397635    -179.8951976
  44 TORSION   3  2  6 15               3.1406228     179.9444323
  45 TORSION   3  2  6 14              -1.0822197     -62.0066193
  46 TORSION   3  2  4  7              -1.0795371     -61.8529181
  47 TORSION   3  2  5 10              -1.0836507     -62.0886112
  48 TORSION   3  2  6 13               1.0805476      61.9108182
  49 TORSION   3  2  5 11               3.1395369     179.8822159
  50 TORSION   3  2  5 12               1.0791952      61.8333328
  51 TORSION   3  2  4  9               1.0825410      62.0250294
  52 TORSION   4  2  6 15              -1.1093065     -63.5585802
  53 TORSION   4  2  6 14               0.9510363      54.4903681
  54 TORSION   4  2  5 10              -3.1167730    -178.5779384
  55 TORSION   4  2  6 13               3.1138036     178.4078057
  56 TORSION   4  2  5 12              -0.9539271     -54.6559945
  57 TORSION   4  2  5 11               1.1064146      63.3928887
  58 TORSION   5  2  6 15               1.1071274      63.4337280
  59 TORSION   5  2  6 14              -3.1157151    -178.5173236
  60 TORSION   5  2  4  7               0.9537852      54.6478664
  61 TORSION   5  2  6 13              -0.9529478     -54.5998861
  62 TORSION   5  2  4  9               3.1158633     178.5258139
  63 TORSION   5  2  4  8              -1.1064412     -63.3944130
  64 TORSION   6  2  4  7              -3.1130207    -178.3629494
  65 TORSION   6  2  5 10               0.9498725      54.4236833
  66 TORSION   6  2  5 11              -1.1101252     -63.6054896
  67 TORSION   6  2  5 12               3.1127184     178.3456273
  68 TORSION   6  2  4  9              -0.9509427     -54.4850018
  69 TORSION   6  2  4  8               1.1099381      63.5947712

          ********************
          1 ELECTRON INTEGRALS
          ********************
 TIME TO DO ORDINARY INTEGRALS=      0.01
 TIME TO DO      ECP INTEGRALS=      0.08
 ...... END OF ONE-ELECTRON INTEGRALS ......
 CPU     0: STEP CPU TIME=     0.10 TOTAL CPU TIME=        0.2 (    0.0 MIN)
 TOTAL WALL CLOCK TIME=        0.3 SECONDS, CPU UTILIZATION IS  67.86%

          -------------
          GUESS OPTIONS
          -------------
          GUESS =HUCKEL            NORB  =       0          NORDER=       0
          MIX   =       F          PRTMO =       F          PUNMO =       F
          TOLZ  = 1.0E-08          TOLE  = 1.0E-05
          SYMDEN=       F          PURIFY=       F

 INITIAL GUESS ORBITALS GENERATED BY HUCKEL   ROUTINE.
 HUCKEL GUESS REQUIRES    916545 WORDS.

 STATISTICS FOR GENERATION OF SYMMETRY ORBITAL -Q- MATRIX
 NUMBER OF CARTESIAN ATOMIC ORBITALS=        354
 NUMBER OF SPHERICAL CONTAMINANTS DROPPED=    38
 NUMBER OF LINEARLY DEPENDENT MOS DROPPED=     0
 TOTAL NUMBER OF MOS IN VARIATION SPACE=     316

 SYMMETRIES FOR INITIAL GUESS ORBITALS FOLLOW.   BOTH SET(S).
    29 ORBITALS ARE OCCUPIED (   13 CORE ORBITALS).
    14=A       15=A       16=A       17=A       18=A       19=A       20=A   
    21=A       22=A       23=A       24=A       25=A       26=A       27=A   
    28=A       29=A       30=A       31=A       32=A       33=A       34=A   
    35=A       36=A       37=A       38=A       39=A   
 ...... END OF INITIAL ORBITAL SELECTION ......
 CPU     0: STEP CPU TIME=     0.20 TOTAL CPU TIME=        0.4 (    0.0 MIN)
 TOTAL WALL CLOCK TIME=        0.8 SECONDS, CPU UTILIZATION IS  51.32%

                    ----------------------
                    AO INTEGRAL TECHNOLOGY
                    ----------------------
     S,P,L SHELL ROTATED AXIS INTEGRALS, REPROGRAMMED BY
        KAZUYA ISHIMURA (IMS) AND JOSE SIERRA (SYNSTAR).
     S,P,D,L SHELL ROTATED AXIS INTEGRALS PROGRAMMED BY
        KAZUYA ISHIMURA (INSTITUTE FOR MOLECULAR SCIENCE).
     S,P,D,F,G SHELL TO TOTAL QUARTET ANGULAR MOMENTUM SUM 5,
        ERIC PROGRAM BY GRAHAM FLETCHER (ELORET AND NASA ADVANCED
        SUPERCOMPUTING DIVISION, AMES RESEARCH CENTER).
     S,P,D,F,G,L SHELL GENERAL RYS QUADRATURE PROGRAMMED BY
        MICHEL DUPUIS (PACIFIC NORTHWEST NATIONAL LABORATORY).

          --------------------
          2 ELECTRON INTEGRALS
          --------------------

 DIRECT SCF METHOD SKIPS INTEGRAL STORAGE ON DISK.
 DIRECT TRANSFORMATION SKIPS AO INTEGRAL STORAGE ON DISK.
  ...... END OF TWO-ELECTRON INTEGRALS .....
 CPU     0: STEP CPU TIME=     0.01 TOTAL CPU TIME=        0.4 (    0.0 MIN)
 TOTAL WALL CLOCK TIME=        0.8 SECONDS, CPU UTILIZATION IS  51.95%

          --------------------------
                 RHF SCF CALCULATION
          --------------------------

     NUCLEAR ENERGY =       325.0711761091
     MAXIT =  200     NPUNCH=    2
     EXTRAP=T  DAMP=F  SHIFT=F  RSTRCT=F  DIIS=F  DEM=F  SOSCF=T
     DENSITY MATRIX CONV=  2.00E-06
     SOSCF WILL OPTIMIZE    8323 ORBITAL ROTATIONS, SOGTOL=   0.250
     MEMORY REQUIRED FOR RHF ITERS=    982670 WORDS.

 DIRECT SCF CALCULATION, SCHWRZ=T   FDIFF=F,  DIRTHR=  0.00E+00 NITDIR=10
 SCHWARZ INEQUALITY OVERHEAD:     62118 INTEGRALS, T=        0.01

                                                                                   NONZERO     BLOCKS
 ITER EX DEM     TOTAL ENERGY        E CHANGE  DENSITY CHANGE     ORB. GRAD      INTEGRALS    SKIPPED
   1  0  0     -563.4862332791  -563.4862332791   0.367794046   0.000000000     1430970368    4369803
          ---------------START SECOND ORDER SCF---------------
   2  1  0     -564.5734018105    -1.0871685314   0.115183197   0.049705895     1416845180    4696687
   3  2  0     -564.6519329829    -0.0785311724   0.046574232   0.031996306     1415872353    4698749
   4  3  0     -564.6825350185    -0.0306020355   0.015835552   0.006364412     1416498173    4690098
   5  4  0     -564.6837803403    -0.0012453219   0.005445023   0.004359168     1417050055    4682920
   6  5  0     -564.6842898858    -0.0005095454   0.002178069   0.000815174     1417040708    4682213
   7  6  0     -564.6843157324    -0.0000258466   0.000995936   0.000254469     1417056040    4681797
   8  7  0     -564.6843190501    -0.0000033177   0.000153028   0.000081436     1417069661    4681738
   9  8  0     -564.6843193224    -0.0000002723   0.000066734   0.000039131     1417072091    4681747
  10  9  0     -564.6843193620    -0.0000000396   0.000029820   0.000011950     1417073357    4681764
  11 10  0     -564.6843193684    -0.0000000063   0.000011895   0.000003805     1417073087    4681762
  12 11  0     -564.6843193694    -0.0000000010   0.000005080   0.000001270     1417072013    4681763
  13 12  0     -564.6843193696    -0.0000000002   0.000002348   0.000000626     1417071414    4681760
  14 13  0     -564.6843193696    -0.0000000000   0.000001215   0.000000189     1417071732    4681758

          -----------------
          DENSITY CONVERGED
          -----------------
     TIME TO FORM FOCK OPERATORS=      89.2 SECONDS (       6.4 SEC/ITER)
     FOCK TIME ON FIRST ITERATION=       6.4, LAST ITERATION=       6.3
     TIME TO SOLVE SCF EQUATIONS=       0.4 SECONDS (       0.0 SEC/ITER)

 FINAL RHF ENERGY IS     -564.6843193696 AFTER  14 ITERATIONS

          ------------
          EIGENVECTORS
          ------------

                      1          2          3          4          5
                  -80.4419   -20.9879   -11.6067   -11.6067   -11.6067
                     A          A          A          A          A   
    1  LA 1  S    0.000003  -0.000005   0.000000   0.000005   0.000006
    2  LA 1  X    0.000000   0.000000  -0.000005  -0.000006   0.000005
    3  LA 1  Y   -0.000001  -0.000001  -0.000007   0.000003  -0.000004
    4  LA 1  Z    0.000006   0.000005  -0.000001   0.000006   0.000005
    5  LA 1 XX    0.000003  -0.000007   0.000004  -0.000004  -0.000001
    6  LA 1 YY    0.000002  -0.000006  -0.000005   0.000001  -0.000004
    7  LA 1 ZZ   -0.000005   0.000014   0.000001   0.000003   0.000005
    8  LA 1 XY    0.000000  -0.000000   0.000003   0.000003  -0.000002
    9  LA 1 XZ   -0.000000   0.000001   0.000002   0.000003  -0.000002
   10  LA 1 YZ    0.000002  -0.000005   0.000001  -0.000002  -0.000001
   11  LA 1 XX    0.000002   0.000047  -0.000007   0.000025   0.000023
   12  LA 1 YY    0.000002   0.000041   0.000010   0.000013   0.000026
   13  LA 1 ZZ   -0.000003  -0.000088  -0.000003  -0.000038  -0.000049
   14  LA 1 XY    0.000000   0.000001  -0.000006  -0.000006   0.000006
   15  LA 1 XZ   -0.000000  -0.000006  -0.000003  -0.000007   0.000001
   16  LA 1 YZ    0.000001   0.000035  -0.000000   0.000016   0.000018
   17  LA 1  S   -0.000009  -0.000067  -0.000006  -0.000109  -0.000135
   18  LA 1  X    0.000000  -0.000002  -0.000010  -0.000014   0.000009
   19  LA 1  Y   -0.000000   0.000013  -0.000015   0.000018   0.000006
   20  LA 1  Z    0.000001  -0.000056  -0.000006  -0.000041  -0.000055
   21  LA 1  S    0.000005   0.000044   0.000010   0.000164   0.000203
   22  LA 1  X    0.000000   0.000001   0.000026   0.000035  -0.000019
   23  LA 1  Y   -0.000000  -0.000009   0.000037  -0.000052  -0.000025
   24  LA 1  Z    0.000000   0.000039   0.000016   0.000136   0.000180
   25  LA 1  S   -0.000008   0.000014  -0.000000  -0.000007  -0.000008
   26  LA 1  X   -0.000001  -0.000001   0.000008   0.000009  -0.000009
   27  LA 1  Y    0.000004   0.000006   0.000012  -0.000002   0.000009
   28  LA 1  Z   -0.000018  -0.000028   0.000001  -0.000020  -0.000021
   29  LA 1 XX   -0.000001  -0.000015   0.000008  -0.000045  -0.000050
   30  LA 1 YY   -0.000001  -0.000013  -0.000022  -0.000025  -0.000052
   31  LA 1 ZZ    0.000003   0.000027   0.000015   0.000070   0.000101
   32  LA 1 XY   -0.000000  -0.000000   0.000003   0.000001  -0.000003
   33  LA 1 XZ    0.000000   0.000002   0.000021   0.000030  -0.000015
   34  LA 1 YZ   -0.000001  -0.000011   0.000024  -0.000044  -0.000028
   35  P  2  S    1.000136   0.000072   0.000005   0.000087   0.000108
   36  P  2  S    0.000165   0.000449   0.000038   0.000621   0.000771
   37  P  2  S    0.000181   0.000591   0.000058   0.000964   0.001197
   38  P  2  S   -0.000939  -0.000178  -0.000019  -0.000311  -0.000386
   39  P  2  S   -0.000370  -0.002393   0.000008   0.000122   0.000151
   40  P  2  X   -0.000003  -0.000003   0.000311   0.000376  -0.000307
   41  P  2  Y    0.000016   0.000021   0.000474  -0.000277   0.000134
   42  P  2  Z   -0.000072  -0.000096   0.000104   0.000076   0.000229
   43  P  2  X   -0.000002  -0.000010   0.000818   0.000989  -0.000810
   44  P  2  Y    0.000014   0.000061   0.001249  -0.000727   0.000357
   45  P  2  Z   -0.000062  -0.000274   0.000274   0.000184   0.000584
   46  P  2  X    0.000001   0.000004  -0.000035  -0.000043   0.000034
   47  P  2  Y   -0.000008  -0.000026  -0.000053   0.000034  -0.000012
   48  P  2  Z    0.000037   0.000116  -0.000012  -0.000020  -0.000039
   49  P  2  X   -0.000003   0.000051  -0.000048  -0.000045   0.000060
   50  P  2  Y    0.000018  -0.000322  -0.000076  -0.000025  -0.000104
   51  P  2  Z   -0.000082   0.001427   0.000004   0.000292   0.000341
   52  P  2 XX   -0.000003  -0.000065   0.000205  -0.000060   0.000111
   53  P  2 YY   -0.000003  -0.000055  -0.000227   0.000151  -0.000047
   54  P  2 ZZ    0.000006   0.000120   0.000022  -0.000090  -0.000064
   55  P  2 XY   -0.000000  -0.000002   0.000129   0.000151  -0.000126
   56  P  2 XZ    0.000000   0.000008   0.000093   0.000121  -0.000110
   57  P  2 YZ   -0.000002  -0.000048   0.000050  -0.000006   0.000056
   58  P  2 XX   -0.000024  -0.000022   0.000286   0.000060   0.000291
   59  P  2 YY   -0.000021  -0.000019  -0.000389   0.000356   0.000037
   60  P  2 ZZ    0.000045   0.000041   0.000103  -0.000416  -0.000328
   61  P  2 XY   -0.000001  -0.000001   0.000141   0.000150  -0.000119
   62  P  2 XZ    0.000003   0.000003   0.000289   0.000340  -0.000330
   63  P  2 YZ   -0.000018  -0.000017   0.000315  -0.000037   0.000277
   64  P  2 XXX   0.000001   0.000010   0.000023   0.000030  -0.000017
   65  P  2 YYY  -0.000006   0.000028   0.000028  -0.000076  -0.000063
   66  P  2 ZZZ  -0.000013  -0.000182  -0.000031  -0.000039  -0.000086
   67  P  2 XXY  -0.000001  -0.000162   0.000017   0.000041   0.000060
   68  P  2 XXZ   0.000010   0.000110   0.000015   0.000044   0.000079
   69  P  2 YYX   0.000000   0.000003   0.000005   0.000006  -0.000002
   70  P  2 YYZ   0.000007   0.000135   0.000026   0.000009   0.000036
   71  P  2 ZZX  -0.000001  -0.000017  -0.000036  -0.000046   0.000025
   72  P  2 ZZY   0.000008   0.000124  -0.000054   0.000061   0.000024
   73  P  2 XYZ   0.000000   0.000012   0.000018   0.000026  -0.000022
   74  P  2 XX    0.000001   0.000022  -0.000005   0.000003  -0.000000
   75  P  2 YY    0.000001   0.000019   0.000005  -0.000002   0.000003
   76  P  2 ZZ   -0.000002  -0.000041  -0.000000  -0.000002  -0.000003
   77  P  2 XY    0.000000   0.000001  -0.000003  -0.000004   0.000003
   78  P  2 XZ   -0.000000  -0.000003  -0.000001  -0.000002   0.000001
   79  P  2 YZ    0.000001   0.000016   0.000000   0.000001   0.000001
   80  O  3  S    0.000000   0.975763   0.000002   0.000028   0.000035
   81  O  3  S    0.000001  -0.001105   0.000002   0.000042   0.000052
   82  O  3  S    0.000005   0.043146  -0.000001  -0.000012  -0.000015
   83  O  3  S   -0.000067   0.004795   0.000010   0.000142   0.000175
   84  O  3  X    0.000000   0.000020  -0.000005  -0.000006   0.000004
   85  O  3  Y   -0.000000  -0.000121  -0.000007   0.000006   0.000001
   86  O  3  Z    0.000001   0.000540  -0.000002  -0.000012  -0.000016
   87  O  3  X   -0.000001  -0.000019   0.000012   0.000016  -0.000010
   88  O  3  Y    0.000004   0.000118   0.000018  -0.000018  -0.000004
   89  O  3  Z   -0.000016  -0.000527   0.000006   0.000036   0.000050
[...]
            143  C  4 XXY     0.00128     0.07609
            144  C  4 XXZ     0.00083     0.07717
            145  C  4 YYX     0.00084     0.06913
            146  C  4 YYZ     0.00136     0.06648
            147  C  4 ZZX     0.00000     0.06962
            148  C  4 ZZY     0.00000     0.06674
            149  C  4 XYZ     0.00000     0.00299
            150  C  5  S      1.95556     1.55551
            151  C  5  S      0.82763     0.43100
            152  C  5  S      0.16174     0.27784
            153  C  5  S      0.32456     0.14851
            154  C  5  X      0.27218     0.21090
            155  C  5  Y      0.29440     0.22624
            156  C  5  Z      0.29347     0.22569
            157  C  5  X      0.51456     0.26562
            158  C  5  Y      0.53852     0.27942
            159  C  5  Z      0.53845     0.28008
            160  C  5  X      0.13844     0.18397
            161  C  5  Y      0.19201     0.20323
            162  C  5  Z      0.22900     0.20947
            163  C  5 XX      0.00522     0.08564
            164  C  5 YY      0.00524     0.08689
            165  C  5 ZZ      0.00424     0.08566
            166  C  5 XY      0.00420     0.00468
            167  C  5 XZ      0.00337     0.00454
            168  C  5 YZ      0.00000     0.00377
            169  C  5 XX      0.00857     0.09203
            170  C  5 YY      0.01271     0.09063
            171  C  5 ZZ      0.01150     0.08551
            172  C  5 XY      0.01032     0.02657
            173  C  5 XZ      0.00817     0.02492
            174  C  5 YZ      0.00000     0.01542
            175  C  5 XXX     0.00091     0.15926
            176  C  5 YYY     0.00073     0.17163
            177  C  5 ZZZ     0.00081     0.16821
            178  C  5 XXY     0.00126     0.07633
            179  C  5 XXZ     0.00087     0.07831
            180  C  5 YYX     0.00079     0.06898
            181  C  5 YYZ     0.00137     0.06678
            182  C  5 ZZX     0.00000     0.06996
            183  C  5 ZZY     0.00000     0.06661
            184  C  5 XYZ     0.00000     0.00291
            185  C  6  S      1.95556     1.55588
            186  C  6  S      0.82763     0.43302
            187  C  6  S      0.16174     0.27889
            188  C  6  S      0.32457     0.14938
            189  C  6  X      0.30120     0.22879
            190  C  6  Y      0.26002     0.20686
            191  C  6  Z      0.29883     0.22902
            192  C  6  X      0.54480     0.27974
            193  C  6  Y      0.50094     0.26620
            194  C  6  Z      0.54578     0.28014
            195  C  6  X      0.20414     0.20676
            196  C  6  Y      0.11122     0.17198
            197  C  6  Z      0.24410     0.21235
            198  C  6 XX      0.00568     0.08711
            199  C  6 YY      0.00603     0.09045
            200  C  6 ZZ      0.00355     0.08675
            201  C  6 XY      0.00432     0.00320
            202  C  6 XZ      0.00270     0.00456
            203  C  6 YZ      0.00000     0.00257
            204  C  6 XX      0.01071     0.08889
            205  C  6 YY      0.01491     0.10374
            206  C  6 ZZ      0.01015     0.08721
            207  C  6 XY      0.00861     0.02238
            208  C  6 XZ      0.00688     0.01979
            209  C  6 YZ      0.00000     0.01311
            210  C  6 XXX     0.00089     0.16294
            211  C  6 YYY     0.00095     0.16904
            212  C  6 ZZZ     0.00061     0.16654
            213  C  6 XXY     0.00141     0.07060
            214  C  6 XXZ     0.00094     0.07572
            215  C  6 YYX     0.00050     0.07866
            216  C  6 YYZ     0.00146     0.07298
            217  C  6 ZZX     0.00000     0.07415
            218  C  6 ZZY     0.00000     0.06394
            219  C  6 XYZ     0.00000     0.00267
            220  H  7  S      0.25337     0.19542
            221  H  7  S      0.45326     0.24529
            222  H  7  S      0.06363     0.12036
            223  H  7  X      0.00159     0.00206
            224  H  7  Y      0.00746     0.01100
            225  H  7  Z      0.00171     0.00219
            226  H  7  X      0.01049     0.02862
            227  H  7  Y      0.00494     0.04771
            228  H  7  Z      0.00881     0.02981
            229  H  7 XX      0.00032     0.06934
            230  H  7 YY      0.00065     0.11698
            231  H  7 ZZ      0.00100     0.06991
            232  H  7 XY      0.00009     0.00486
            233  H  7 XZ      0.00084     0.00015
            234  H  7 YZ      0.00000     0.00513
            235  H  8  S      0.24822     0.19095
            236  H  8  S      0.44931     0.24050
            237  H  8  S      0.04923     0.11536
            238  H  8  X      0.00161     0.00210
            239  H  8  Y      0.00186     0.00258
            240  H  8  Z      0.00731     0.01056
            241  H  8  X      0.00962     0.02894
            242  H  8  Y      0.00784     0.02901
            243  H  8  Z      0.00627     0.04765
            244  H  8 XX      0.00091     0.06814
            245  H  8 YY      0.00012     0.07058
            246  H  8 ZZ      0.00010     0.11250
            247  H  8 XY      0.00094     0.00020
            248  H  8 XZ      0.00079     0.00491
            249  H  8 YZ      0.00000     0.00540
            250  H  9  S      0.25337     0.18773
            251  H  9  S      0.45325     0.24324
            252  H  9  S      0.06358     0.12069
            253  H  9  X      0.00586     0.00774
            254  H  9  Y      0.00249     0.00354
            255  H  9  Z      0.00242     0.00341
            256  H  9  X      0.00986     0.04410
            257  H  9  Y      0.00707     0.03125
            258  H  9  Z      0.00731     0.03213
            259  H  9 XX      0.00047     0.09980
            260  H  9 YY      0.00090     0.07539
            261  H  9 ZZ      0.00063     0.07465
            262  H  9 XY      0.00065     0.00524
            263  H  9 XZ      0.00025     0.00527
            264  H  9 YZ      0.00000     0.00165
            265  H 10  S      0.25337     0.18705
            266  H 10  S      0.45324     0.24301
            267  H 10  S      0.06357     0.12066
            268  H 10  X      0.00562     0.00741
            269  H 10  Y      0.00246     0.00346
            270  H 10  Z      0.00269     0.00377
            271  H 10  X      0.01028     0.04356
            272  H 10  Y      0.00711     0.03115
            273  H 10  Z      0.00686     0.03288
            274  H 10 XX      0.00052     0.09787
            275  H 10 YY      0.00087     0.07476
            276  H 10 ZZ      0.00061     0.07676
            277  H 10 XY      0.00062     0.00495
            278  H 10 XZ      0.00028     0.00535
            279  H 10 YZ      0.00000     0.00193
            280  H 11  S      0.24822     0.19100
            281  H 11  S      0.44931     0.24046
            282  H 11  S      0.04923     0.11533
            283  H 11  X      0.00164     0.00218
            284  H 11  Y      0.00185     0.00257
            285  H 11  Z      0.00729     0.01050
            286  H 11  X      0.00997     0.02906
            287  H 11  Y      0.00785     0.02901
            288  H 11  Z      0.00590     0.04755
            289  H 11 XX      0.00089     0.06833
            290  H 11 YY      0.00013     0.07060
            291  H 11 ZZ      0.00010     0.11236
            292  H 11 XY      0.00095     0.00022
            293  H 11 XZ      0.00079     0.00492
            294  H 11 YZ      0.00000     0.00538
            295  H 12  S      0.25337     0.19542
            296  H 12  S      0.45327     0.24530
            297  H 12  S      0.06364     0.12035
            298  H 12  X      0.00159     0.00205
            299  H 12  Y      0.00746     0.01101
            300  H 12  Z      0.00172     0.00220
            301  H 12  X      0.01058     0.02872
            302  H 12  Y      0.00499     0.04776
            303  H 12  Z      0.00867     0.02970
            304  H 12 XX      0.00032     0.06936
            305  H 12 YY      0.00065     0.11698
            306  H 12 ZZ      0.00101     0.06989
            307  H 12 XY      0.00009     0.00484
            308  H 12 XZ      0.00083     0.00014
            309  H 12 YZ      0.00000     0.00515
            310  H 13  S      0.25338     0.18730
            311  H 13  S      0.45326     0.24253
            312  H 13  S      0.06362     0.12027
            313  H 13  X      0.00540     0.00690
            314  H 13  Y      0.00262     0.00395
            315  H 13  Z      0.00275     0.00391
            316  H 13  X      0.00449     0.04117
            317  H 13  Y      0.01277     0.03347
            318  H 13  Z      0.00699     0.03266
            319  H 13 XX      0.00051     0.09608
            320  H 13 YY      0.00073     0.07624
            321  H 13 ZZ      0.00072     0.07716
            322  H 13 XY      0.00060     0.00487
            323  H 13 XZ      0.00033     0.00524
            324  H 13 YZ      0.00000     0.00212
            325  H 14  S      0.25337     0.18808
            326  H 14  S      0.45325     0.24282
            327  H 14  S      0.06360     0.12029
            328  H 14  X      0.00564     0.00724
            329  H 14  Y      0.00264     0.00405
            330  H 14  Z      0.00248     0.00353
            331  H 14  X      0.00416     0.04192
            332  H 14  Y      0.01277     0.03362
            333  H 14  Z      0.00731     0.03174
            334  H 14 XX      0.00047     0.09814
            335  H 14 YY      0.00076     0.07695
            336  H 14 ZZ      0.00075     0.07497
            337  H 14 XY      0.00062     0.00518
            338  H 14 XZ      0.00030     0.00517
            339  H 14 YZ      0.00000     0.00184
            340  H 15  S      0.24821     0.19124
            341  H 15  S      0.44931     0.24059
            342  H 15  S      0.04923     0.11538
            343  H 15  X      0.00163     0.00210
            344  H 15  Y      0.00199     0.00306
            345  H 15  Z      0.00715     0.01020
            346  H 15  X      0.00800     0.02807
            347  H 15  Y      0.01137     0.03099
            348  H 15  Z      0.00435     0.04722
            349  H 15 XX      0.00085     0.06755
            350  H 15 YY      0.00019     0.07253
            351  H 15 ZZ      0.00011     0.11162
            352  H 15 XY      0.00077     0.00028
            353  H 15 XZ      0.00094     0.00503
            354  H 15 YZ      0.00000     0.00531

          ----- MULLIKEN ATOMIC OVERLAP POPULATIONS -----
          (OFF-DIAGONAL ELEMENTS NEED TO BE MULTIPLIED BY 2)

             1           2           3           4           5

    1    8.5626806
    2   -0.0055107  13.2036505
    3    0.1205506   0.2644506   8.3490354
    4    0.0000833   0.3425718  -0.0203092   5.0152192
    5    0.0000832   0.3425698  -0.0203128  -0.0319436   5.0152201
    6    0.0000818   0.3425748  -0.0203133  -0.0319272  -0.0319309
    7    0.0003841  -0.0163021   0.0006702   0.3654014  -0.0025723
    8    0.0004821  -0.0130021   0.0013149   0.3567476  -0.0000891
    9    0.0003810  -0.0162984   0.0006663   0.3654339   0.0024429
   10    0.0003806  -0.0162991   0.0006660   0.0024427   0.3654324
   11    0.0004820  -0.0129990   0.0013149  -0.0000861   0.3567481
   12    0.0003843  -0.0163021   0.0006713  -0.0025759   0.3653978
   13    0.0003835  -0.0162979   0.0006693   0.0024441  -0.0025805
   14    0.0003819  -0.0162958   0.0006669  -0.0025780   0.0024435
   15    0.0004830  -0.0130169   0.0013147  -0.0000870  -0.0000836

             6           7           8           9          10

    6    5.0151706
    7    0.0024445   0.4881489
    8   -0.0000863  -0.0119246   0.4630995
    9   -0.0025787  -0.0185895  -0.0119318   0.4880669
   10   -0.0025729  -0.0000052  -0.0000059  -0.0000761   0.4880463
   11   -0.0000903  -0.0001599  -0.0000790  -0.0000057  -0.0119296
   12    0.0024446   0.0007716  -0.0001592  -0.0000053  -0.0185902
   13    0.3654178  -0.0000762  -0.0000062  -0.0000049   0.0007761
   14    0.3654266  -0.0000050  -0.0001592   0.0007778  -0.0000046
   15    0.3567545  -0.0000060  -0.0000831  -0.0001601  -0.0001615

            11          12          13          14          15

   11    0.4630967
   12   -0.0119259   0.4881744
   13   -0.0001577  -0.0000054   0.4881266
   14   -0.0000065  -0.0000762  -0.0185896   0.4880893
   15   -0.0000822  -0.0000056  -0.0119267  -0.0119316   0.4631102

          TOTAL MULLIKEN AND LOWDIN ATOMIC POPULATIONS
       ATOM         MULL.POP.    CHARGE          LOW.POP.     CHARGE
    1 LA            8.681711    2.318289         8.840870    2.159130
    2 P            14.353493    0.646507        14.294135    0.705865
    3 O             8.681056   -0.681056         8.327116   -0.327116
    4 C             6.360837   -0.360837         6.031599   -0.031599
    5 C             6.360825   -0.360825         6.032711   -0.032711
    6 C             6.360816   -0.360816         6.046021   -0.046021
    7 H             0.808180    0.191820         0.948850    0.051150
    8 H             0.784117    0.215883         0.929381    0.070619
    9 H             0.808118    0.191882         0.935844    0.064156
   10 H             0.808099    0.191901         0.934561    0.065439
   11 H             0.784120    0.215880         0.929486    0.070514
   12 H             0.808198    0.191802         0.948854    0.051146
   13 H             0.808172    0.191828         0.933876    0.066124
   14 H             0.808139    0.191861         0.935532    0.064468
   15 H             0.784118    0.215882         0.931163    0.068837

          MULLIKEN SPHERICAL HARMONIC POPULATIONS
       ATOM           S       P       D      F      G      H      I    TOTAL
    1 LA            2.02    6.35    0.31   0.00   0.00   0.00   0.00    8.68
    2 P             5.33    8.38    0.57   0.07   0.00   0.00   0.00   14.35
    3 O             3.56    5.08    0.04   0.00   0.00   0.00   0.00    8.68
    4 C             3.27    3.01    0.07   0.01   0.00   0.00   0.00    6.36
    5 C             3.27    3.01    0.07   0.01   0.00   0.00   0.00    6.36
    6 C             3.27    3.01    0.07   0.01   0.00   0.00   0.00    6.36
    7 H             0.77    0.04    0.00   0.00   0.00   0.00   0.00    0.81
    8 H             0.75    0.03    0.00   0.00   0.00   0.00   0.00    0.78
    9 H             0.77    0.04    0.00   0.00   0.00   0.00   0.00    0.81
   10 H             0.77    0.04    0.00   0.00   0.00   0.00   0.00    0.81
   11 H             0.75    0.03    0.00   0.00   0.00   0.00   0.00    0.78
   12 H             0.77    0.04    0.00   0.00   0.00   0.00   0.00    0.81
   13 H             0.77    0.04    0.00   0.00   0.00   0.00   0.00    0.81
   14 H             0.77    0.04    0.00   0.00   0.00   0.00   0.00    0.81
   15 H             0.75    0.03    0.00   0.00   0.00   0.00   0.00    0.78

          -------------------------------
          BOND ORDER AND VALENCE ANALYSIS     BOND ORDER THRESHOLD=0.050
          -------------------------------

                   BOND                       BOND                       BOND
  ATOM PAIR DIST  ORDER      ATOM PAIR DIST  ORDER      ATOM PAIR DIST  ORDER
    1   3  2.450  0.515        2   3  1.728  0.823        2   4  1.774  1.007
    2   5  1.774  1.007        2   6  1.774  1.007        4   7  1.089  0.880
    4   8  1.095  0.860        4   9  1.089  0.880        5  10  1.089  0.880
    5  11  1.095  0.860        5  12  1.089  0.879        6  13  1.089  0.880
    6  14  1.089  0.880        6  15  1.095  0.860

                       TOTAL       BONDED        FREE
      ATOM            VALENCE     VALENCE     VALENCE
    1 LA               -0.099       0.568      -0.667
    2 P                 4.622       4.213       0.409
    3 O                 2.274       1.377       0.896
    4 C                 3.933       3.640       0.293
    5 C                 3.933       3.640       0.293
    6 C                 3.933       3.640       0.293
    7 H                 0.979       0.927       0.051
    8 H                 0.969       0.918       0.051
    9 H                 0.979       0.927       0.051
   10 H                 0.979       0.927       0.051
   11 H                 0.969       0.918       0.051
   12 H                 0.979       0.927       0.051
   13 H                 0.979       0.927       0.051
   14 H                 0.979       0.927       0.051
   15 H                 0.969       0.918       0.051

          ---------------------
          ELECTROSTATIC MOMENTS
          ---------------------

 POINT   1           X           Y           Z (BOHR)    CHARGE
                -0.219902    1.457349   -4.592780        3.00 (A.U.)
         DX          DY          DZ         /D/  (DEBYE)
    -0.076116    0.477272   -2.127550    2.181755
 ...... END OF PROPERTY EVALUATION ......
 CPU     0: STEP CPU TIME=     0.20 TOTAL CPU TIME=     1304.7 (   21.7 MIN)
 TOTAL WALL CLOCK TIME=     1323.7 SECONDS, CPU UTILIZATION IS  98.57%
  $VIB   
          IVIB=   0 IATOM=   0 ICOORD=   0 E=     -565.5818883402
 -1.020837709E-06 1.002349614E-06 2.611740786E-07-2.297982592E-06 5.946902816E-06
 -7.760841999E-06 4.382986737E-06 2.966093280E-06-2.813648064E-06-9.920953669E-06
  4.009258341E-06 8.945122980E-06 1.190118738E-05-8.322929322E-07 1.039228890E-05
  1.364477887E-06-1.538315575E-05-3.028482496E-06 8.629626486E-06-1.578081653E-06
 -5.052559660E-06-1.185172375E-06 5.543351791E-06-6.505443136E-07 7.084084794E-06
 -1.438680638E-05 1.886692010E-06-6.499038728E-06-1.233322184E-05 1.780456219E-06
 -7.808062301E-07 7.918804752E-06-7.924176068E-08-9.856970991E-06-1.515950119E-06
 -5.448327524E-06 3.475017441E-06 1.057042666E-05-6.523831467E-07-6.504260822E-06
  1.099590002E-05 4.924586244E-06 1.228642394E-06-2.923578587E-06-2.704291470E-06
 -7.611582993E-02 4.772717344E-01-2.127550495E+00
 ......END OF GEOMETRY SEARCH......
 CPU     0: STEP CPU TIME=     0.02 TOTAL CPU TIME=     1304.7 (   21.7 MIN)
 TOTAL WALL CLOCK TIME=     1323.7 SECONDS, CPU UTILIZATION IS  98.57%
               2991967  WORDS OF DYNAMIC MEMORY USED
 EXECUTION OF GAMESS TERMINATED NORMALLY Wed Jun  8 23:25:52 2016
 DDI: 44487344 bytes (42.4 MB / 5 MWords) used by master data server.

 ----------------------------------------
 CPU timing information for all processes
 ========================================
 0: 1302.745 + 2.70 = 1304.816
 1: 1293.258 + 2.10 = 1295.269
 2: 1301.717 + 1.982 = 1303.699
 3: 1300.989 + 2.24 = 1303.13
 4: 1300.415 + 2.39 = 1302.454
 5: 1299.999 + 1.978 = 1301.978
 6: 1298.670 + 2.39 = 1300.710
 7: 1302.151 + 2.22 = 1304.173
 8: 1295.315 + 2.18 = 1297.333
 9: 1302.333 + 1.897 = 1304.230
 10: 1303.153 + 1.953 = 1305.107
 11: 1300.293 + 1.897 = 1302.191
 12: 1296.311 + 2.56 = 1298.368
 13: 1302.490 + 1.969 = 1304.460
 14: 1302.706 + 2.04 = 1304.711
 15: 1296.628 + 1.587 = 1298.216
 16: 0.19 + 0.54 = 0.74
 17: 0.12 + 0.59 = 0.72
 18: 0.16 + 0.59 = 0.76
 19: 0.12 + 0.61 = 0.74
 20: 0.21 + 0.53 = 0.75
 21: 0.19 + 0.54 = 0.74
 22: 0.14 + 0.57 = 0.72
 23: 0.10 + 0.61 = 0.72
 24: 0.19 + 0.55 = 0.75
 25: 0.20 + 0.52 = 0.73
 26: 0.19 + 0.57 = 0.77
 27: 0.12 + 0.64 = 0.77
 28: 0.17 + 0.63 = 0.81
 29: 0.08 + 0.54 = 0.63
 30: 0.16 + 0.61 = 0.78
 31: 0.11 + 0.66 = 0.78
 ----------------------------------------
unset echo
----- accounting info -----
Files used on the master node node222 were:
-rw-r--r-- 1 fzahari quantum     1977 Jun  8 23:03 /local/scratch/fzahari/196565.share/bnd_var-245.F05
-rw-r--r-- 1 fzahari quantum 17178000 Jun  8 23:25 /local/scratch/fzahari/196565.share/bnd_var-245.F10
-rw-r--r-- 1 fzahari quantum        8 Jun  8 23:03 /local/scratch/fzahari/196565.share/bnd_var-245.nodes.mpd
ls: No match.
ls: No match.
ls: No match.
Wed Jun  8 23:25:55 CDT 2016
20800.033u 38.255s 22:08.18 1568.9%	0+0k 104+209432io 0pf+0w
