----- GAMESS execution script 'rungms' -----
This job is running on host node217
under operating system Linux at Thu Jun 9 11:03:08 CDT 2016
PBS has assigned the following compute nodes to this run:
node217
Available scratch disk space (Kbyte units) at beginning of the job is
Filesystem           1K-blocks      Used Available Use% Mounted on
/dev/sda7            2670838024    240688 2534926552   1% /local
GAMESS temporary binary files will be written to /local/scratch/fzahari/196592.share
GAMESS supplementary output files will be written to /work1/quantum/fzahari/scr
Copying input file bnd_var-022.inp to your run's scratch directory...
cp bnd_var-022.inp /local/scratch/fzahari/196592.share/bnd_var-022.F05
unset echo
setenv I_MPI_WAIT_MODE enable
setenv I_MPI_PIN disable
setenv I_MPI_DEBUG 0
setenv I_MPI_STATS 0
setenv I_MPI_FABRICS dapl
setenv I_MPI_DAT_LIBRARY libdat2.so
unset echo
MPI kickoff will run GAMESS on 16 cores in 1 nodes.
The binary to be executed is /home/mschmidt/gamess/gamess.132.x
MPI will run 16 compute processes and 16 data servers,
    placing 16 of each process type onto each node.
The scratch disk space on each node is /local/scratch/fzahari/196592.share, with free space
Filesystem           1K-blocks      Used Available Use% Mounted on
/dev/sda7            2670838024    240712 2534926528   1% /local
setenv I_MPI_HYDRA_ENV all
setenv I_MPI_PERHOST 32
unset echo
mpiexec.hydra -f /local/scratch/fzahari/196592.share/bnd_var-022.processes.mpd -n 32 /home/mschmidt/gamess/gamess.132.x
          ******************************************************
          *         GAMESS VERSION =  5 DEC 2014 (R1)          *
          *             FROM IOWA STATE UNIVERSITY             *
          * M.W.SCHMIDT, K.K.BALDRIDGE, J.A.BOATZ, S.T.ELBERT, *
          *   M.S.GORDON, J.H.JENSEN, S.KOSEKI, N.MATSUNAGA,   *
          *          K.A.NGUYEN, S.J.SU, T.L.WINDUS,           *
          *       TOGETHER WITH M.DUPUIS, J.A.MONTGOMERY       *
          *         J.COMPUT.CHEM.  14, 1347-1363(1993)        *
          **************** 64 BIT INTEL VERSION ****************

  SINCE 1993, STUDENTS AND POSTDOCS WORKING AT IOWA STATE UNIVERSITY
  AND ALSO IN THEIR VARIOUS JOBS AFTER LEAVING ISU HAVE MADE IMPORTANT
  CONTRIBUTIONS TO THE CODE:
     IVANA ADAMOVIC, CHRISTINE AIKENS, YURI ALEXEEV, POOJA ARORA,
     ANDREY ASADCHEV, ROB BELL, PRADIPTA BANDYOPADHYAY, JONATHAN BENTZ,
     BRETT BODE, KURT BRORSEN, CALEB CARLIN, GALINA CHABAN, WEI CHEN,
     CHEOL HO CHOI, PAUL DAY, ALBERT DEFUSCO, NUWAN DESILVA, TIM DUDLEY,
     DMITRI FEDOROV, GRAHAM FLETCHER, MARK FREITAG, KURT GLAESEMANN,
     DAN KEMP, GRANT MERRILL, NORIYUKI MINEZAWA, JONATHAN MULLIN,
     TAKESHI NAGATA, SEAN NEDD, HEATHER NETZLOFF, BOSILJKA NJEGIC, RYAN OLSON,
     MIKE PAK, SPENCER PRUITT, LUKE ROSKOP, JIM SHOEMAKER, LYUDMILA SLIPCHENKO,
     TONY SMITH, SAROM SOK, JIE SONG, TETSUYA TAKETSUGU, SIMON WEBB,
     PENG XU, SOOHAENG YOO, FEDERICO ZAHARIEV

  ADDITIONAL CODE HAS BEEN PROVIDED BY COLLABORATORS IN OTHER GROUPS:
     IOWA STATE UNIVERSITY:
          JOE IVANIC, AARON WEST, LAIMUTIS BYTAUTAS, KLAUS RUEDENBERG
     UNIVERSITY OF TOKYO: KIMIHIKO HIRAO, TAKAHITO NAKAJIMA,
          TAKAO TSUNEDA, MUNEAKI KAMIYA, SUSUMU YANAGISAWA,
          KIYOSHI YAGI, MAHITO CHIBA, SEIKEN TOKURA, NAOAKI KAWAKAMI
     UNIVERSITY OF AARHUS: FRANK JENSEN
     UNIVERSITY OF IOWA: VISVALDAS KAIRYS, HUI LI
     NATIONAL INST. OF STANDARDS AND TECHNOLOGY: WALT STEVENS, DAVID GARMER
     UNIVERSITY OF PISA: BENEDETTA MENNUCCI, JACOPO TOMASI
     UNIVERSITY OF MEMPHIS: HENRY KURTZ, PRAKASHAN KORAMBATH
     UNIVERSITY OF ALBERTA: TOBY ZENG, MARIUSZ KLOBUKOWSKI
     UNIVERSITY OF NEW ENGLAND: MARK SPACKMAN
     MIE UNIVERSITY: HIROAKI UMEDA
     NAT. INST. OF ADVANCED INDUSTRIAL SCIENCE AND TECHNOLOGY: KAZUO KITAURA
     MICHIGAN STATE UNIVERSITY:
          KAROL KOWALSKI, MARTA WLOCH, JEFFREY GOUR, JESSE LUTZ,
          WEI LI, PIOTR PIECUCH
     UNIVERSITY OF SILESIA: MONIKA MUSIAL, STANISLAW KUCHARSKI
     FACULTES UNIVERSITAIRES NOTRE-DAME DE LA PAIX:
          OLIVIER QUINET, BENOIT CHAMPAGNE
     UNIVERSITY OF CALIFORNIA - SANTA BARBARA: BERNARD KIRTMAN
     INSTITUTE FOR MOLECULAR SCIENCE:
          KAZUYA ISHIMURA, MICHIO KATOUDA, AND SHIGERU NAGASE
     UNIVERSITY OF NOTRE DAME: ANNA POMOGAEVA, DAN CHIPMAN
     KYUSHU UNIVERSITY:
          HARUYUKI NAKANO,
          FENG LONG GU, JACEK KORCHOWIEC, MARCIN MAKOWSKI, AND YURIKO AOKI,
          HIROTOSHI MORI AND EISAKU MIYOSHI
     PENNSYLVANIA STATE UNIVERSITY:
          TZVETELIN IORDANOV, CHET SWALINA, JONATHAN SKONE,
          SHARON HAMMES-SCHIFFER
     WASEDA UNIVERSITY:
          MASATO KOBAYASHI, TOMOKO AKAMA, TSUGUKI TOUMA,
          TAKESHI YOSHIKAWA, YASUHIRO IKABATA, HIROMI NAKAI
     NANJING UNIVERSITY: SHUHUA LI
     UNIVERSITY OF NEBRASKA:
          PEIFENG SU, DEJUN SI, NANDUN THELLAMUREGE, YALI WANG, HUI LI
     UNIVERSITY OF ZURICH: ROBERTO PEVERATI, KIM BALDRIDGE
     N. COPERNICUS UNIVERSITY AND JACKSON STATE UNIVERSITY:
          MARIA BARYSZ
     UNIVERSITY OF COPENHAGEN: CASPER STEINMANN
     TOKYO INSTITUTE OF TECHNOLOGY: HIROYA NAKATA
     NAGOYA UNIVERSITY: YOSHIO NISHIMOTO, STEPHAN IRLE


 PARALLEL VERSION RUNNING ON       16 PROCESSORS IN        1 NODES.

 EXECUTION OF GAMESS BEGUN Thu Jun  9 11:03:09 2016

            ECHO OF THE FIRST FEW INPUT CARDS -
 INPUT CARD> $ZMAT DLC=.T. AUTO=.T. $END                                                    
 INPUT CARD> $ZMAT IFZMAT(1)=1, 1 , 3  FVALUE(1)= 2.2 $END                                  
 INPUT CARD> $CONTRL COORD=UNIQUE NZVAR= 39 $END                                            
 INPUT CARD> $CONTRL ICHARG=+3 MULT=1                                                       
 INPUT CARD>         MPLEVL=2                                                               
 INPUT CARD>         SCFTYP=RHF                                                             
 INPUT CARD>         MAXIT=200 ISPHER=1 ICUT=11                                             
 INPUT CARD>         RUNTYP=OPTIMIZE                                                        
 INPUT CARD>         PP=READ                                                                
 INPUT CARD>         $END                                                                   
 INPUT CARD> $SCF    DIRSCF=.T. FDIFF=.F. $END                                              
 INPUT CARD> $TRANS  DIRTRF=.T. $END                                                        
 INPUT CARD> $SYSTEM MWORDS=300 MEMDDI=300 $END                                             
 INPUT CARD> $GUESS  GUESS=HUCKEL $END                                                      
 INPUT CARD> $BASIS  BASNAM(1)=METAL,                                                       
 INPUT CARD>                   LIGP,                                                        
 INPUT CARD>                   LIGO,                                                        
 INPUT CARD>                   LIGC,                                                        
 INPUT CARD>                   LIGC,                                                        
 INPUT CARD>                   LIGC,                                                        
 INPUT CARD>                   LIGH,                                                        
 INPUT CARD>                   LIGH,                                                        
 INPUT CARD>                   LIGH,                                                        
 INPUT CARD>                   LIGH,                                                        
 INPUT CARD>                   LIGH,                                                        
 INPUT CARD>                   LIGH,                                                        
 INPUT CARD>                   LIGH,                                                        
 INPUT CARD>                   LIGH,                                                        
 INPUT CARD>                   LIGH                                                         
 INPUT CARD> $END                                                                           
 INPUT CARD> $DATA                                                                          
 INPUT CARD>                                                                                
 INPUT CARD> C1                                                                             
 INPUT CARD> LA 57.0 -0.1739353441 1.134168269 -4.0490164368                                
 INPUT CARD> P 15.0 -0.0366032423161 0.268864666338 -0.190569722868                         
 INPUT CARD> O 8.0 -0.0984157653161 0.653105586238 -1.90358513087                           
 INPUT CARD> C 6.0 -1.48609513842 0.981320430138 0.545107152532                             
 INPUT CARD> C 6.0 1.45592371348 0.991609299638 0.441841464732                              
 INPUT CARD> C 6.0 -0.0256732629161 -1.50141538156 -0.0638069696678                         
 INPUT CARD> H 1.0 -1.48784380522 2.06415350114 0.431735754532                              
 INPUT CARD> H 1.0 -1.44936254212 0.745117652538 1.61299967643                              
 INPUT CARD> H 1.0 -2.39048972722 0.543615296138 0.125956637532                             
 INPUT CARD> H 1.0 2.33199220208 0.559642197438 -0.0389888170678                            
 INPUT CARD> H 1.0 1.49510951278 0.755047428538 1.50958448863                               
 INPUT CARD> H 1.0 1.44268657228 2.07436297444 0.328982462032                               
 INPUT CARD> H 1.0 0.856517236784 -1.92060672676 -0.544874275168                            
 INPUT CARD> H 1.0 -0.937054764616 -1.92746186956 -0.480006174368                           
 INPUT CARD> H 1.0 0.0138369257839 -1.74276220606 1.00276318423                             
 INPUT CARD> $END                                                                           
 INPUT CARD>!                                                                               
  300000000 WORDS OF MEMORY AVAILABLE

     BASIS OPTIONS
     -------------
     GBASIS=             IGAUSS=       0      POLAR=NONE    
     NDFUNC=       0     NFFUNC=       0     DIFFSP=       F
     NPFUNC=       0      DIFFS=       F     BASNAM=METAL   

 USING BASNAM FOR ATOM CUSTOMIZED BASIS CONSTRUCTION
     ----------------
     ATOM  BASIS NAME
     ----------------
       1   METAL   
       2   LIGP    
       3   LIGO    
       4   LIGC    
       5   LIGC    
       6   LIGC    
       7   LIGH    
       8   LIGH    
       9   LIGH    
      10   LIGH    
      11   LIGH    
      12   LIGH    
      13   LIGH    
      14   LIGH    
      15   LIGH    
 NOW LOCATING ALL   15 BASIS SETS IN YOUR INPUT FILE...
 FOUND BASIS SET  $METAL 
  SBKJC                        
                               
  $END                         
 FOUND BASIS SET  $LIGP  
  CCT                          
                               
  $END                         
 FOUND BASIS SET  $LIGO  
  CCT                          
                               
  $END                         
 FOUND BASIS SET  $LIGC  
  CCT                          
                               
  $END                         
 FOUND BASIS SET  $LIGH  
  CCT                          
                               
  $END                         
    5 UNIQUE ATOM CUSTOMIZED BASIS SETS WERE FOUND.

     SEARCHING FOR $MCP
     $MCP GROUP NOT FOUND


     RUN TITLE
     ---------
                                                                                 

 THE POINT GROUP OF THE MOLECULE IS C1      
 THE ORDER OF THE PRINCIPAL AXIS IS     0

 ATOM      ATOMIC                      COORDINATES (BOHR)
           CHARGE         X                   Y                   Z
 LA         57.0    -0.3286901399        2.1432672524       -7.6515315853
 P          15.0    -0.0691700982        0.5080805472       -0.3601245578
 O           8.0    -0.1859788293        1.2341905990       -3.5972542916
 C           6.0    -2.8083126033        1.8544267191        1.0301031522
 C           6.0     2.7512968775        1.8738698632        0.8349592984
 C           6.0    -0.0485154321       -2.8372636649       -0.1205776888
 H           1.0    -2.8116171044        3.9006845138        0.8158622752
 H           1.0    -2.7388980615        1.4080681919        3.0481274067
 H           1.0    -4.5173705609        1.0272839524        0.2380235313
 H           1.0     4.4068262674        1.0575704043       -0.0736781808
 H           1.0     2.8253473008        1.4268327477        2.8527010388
 H           1.0     2.7262823078        3.9199776208        0.6216867080
 H           1.0     1.6185828813       -3.6294204438       -1.0296630778
 H           1.0    -1.7707767406       -3.6423747853       -0.9070801420
 H           1.0     0.0261479982       -3.2933430312        1.8949476488

          INTERNUCLEAR DISTANCES (ANGS.)
          ------------------------------

                1 LA         2 P          3 O          4 C          5 C     

   1 LA      0.0000000    3.9566680    2.2000000 *  4.7802821    4.7795992  
   2 P       3.9566680    0.0000000    1.7566683 *  1.7747790 *  1.7748072 *
   3 O       2.2000000 *  1.7566683 *  0.0000000    2.8336325 *  2.8340046 *
   4 C       4.7802821    1.7747790 *  2.8336325 *  0.0000000    2.9438486 *
   5 C       4.7795992    1.7748072 *  2.8340046 *  2.9438486 *  0.0000000  
   6 C       4.7801859    1.7748464 *  2.8340846 *  2.9440764 *  2.9438040 *
   7 H       4.7611310    2.3909047 *  3.0619096    1.0887532 *  3.1330848  
   8 H       5.8169151    2.3399932 *  3.7682744    1.0943196 *  3.1421422  
   9 H       4.7636400    2.3909116 *  3.0634345    1.0886701 *  3.8852771  
  10 H       4.7634100    2.3911865 *  3.0646921    3.8854564    1.0887099 *
  11 H       5.8161403    2.3394534 *  3.7682147    3.1414960    1.0943364 *
  12 H       4.7607045    2.3912459 *  3.0625687    3.1335625    1.0887001 *
  13 H       4.7615644    2.3910209 *  3.0630030    3.8854953    3.1327142  
  14 H       4.7637973    2.3913253 *  3.0641835    3.1326214    3.8855020  
  15 H       5.8165681    2.3394936 *  3.7682415    3.1432263    3.1418203  

                6 C          7 H          8 H          9 H         10 H     

   1 LA      4.7801859    4.7611310    5.8169151    4.7636400    4.7634100  
   2 P       1.7748464 *  2.3909047 *  2.3399932 *  2.3909116 *  2.3911865 *
   3 O       2.8340846 *  3.0619096    3.7682744    3.0634345    3.0646921  
   4 C       2.9440764 *  1.0887532 *  1.0943196 *  1.0886701 *  3.8854564  
   5 C       2.9438040 *  3.1330848    3.1421422    3.8852771    1.0887099 *
   6 C       0.0000000    3.8854584    3.1441187    3.1321746    3.1316387  
   7 H       3.8854584    0.0000000    1.7710790 *  1.7945214 *  4.1323459  
   8 H       3.1441187    1.7710790 *  0.0000000    1.7713330 *  4.1306308  
   9 H       3.1321746    1.7945214 *  1.7713330 *  0.0000000    4.7253888  
  10 H       3.1316387    4.1323459    4.1306308    4.7253888    0.0000000  
  11 H       3.1432412    3.4312574    2.9463043 *  4.1300134    1.7710548 *
  12 H       3.8854285    2.9323490 *  3.4321337    4.1325112    1.7946159 *
  13 H       1.0887641 *  4.7252629    4.1327458    4.1310360    2.9299456 *
  14 H       1.0887395 *  4.1312995    3.4330473    2.9301683 *  4.1312045  
  15 H       1.0942492 *  4.1320364    2.9500657 *  3.4317777    3.4293086  

               11 H         12 H         13 H         14 H         15 H     

   1 LA      5.8161403    4.7607045    4.7615644    4.7637973    5.8165681  
   2 P       2.3394534 *  2.3912459 *  2.3910209 *  2.3913253 *  2.3394936 *
   3 O       3.7682147    3.0625687    3.0630030    3.0641835    3.7682415  
   4 C       3.1414960    3.1335625    3.8854953    3.1326214    3.1432263  
   5 C       1.0943364 *  1.0887001 *  3.1327142    3.8855020    3.1418203  
   6 C       3.1432412    3.8854285    1.0887641 *  1.0887395 *  1.0942492 *
   7 H       3.4312574    2.9323490 *  4.7252629    4.1312995    4.1320364  
   8 H       2.9463043 *  3.4321337    4.1327458    3.4330473    2.9500657 *
   9 H       4.1300134    4.1325112    4.1310360    2.9301683 *  3.4317777  
  10 H       1.7710548 *  1.7946159 *  2.9299456 *  4.1312045    3.4293086  
  11 H       0.0000000    1.7712038 *  3.4333258    4.1315554    2.9478957 *
  12 H       1.7712038 *  0.0000000    4.1312229    4.7256993    4.1311060  
  13 H       3.4333258    4.1312229    0.0000000    1.7947578 *  1.7711354 *
  14 H       4.1315554    4.7256993    1.7947578 *  0.0000000    1.7711335 *
  15 H       2.9478957 *  4.1311060    1.7711354 *  1.7711335 *  0.0000000  

  * ... LESS THAN  3.000


     ATOMIC BASIS SET
     ----------------
 THE CONTRACTED PRIMITIVE FUNCTIONS HAVE BEEN UNNORMALIZED
 THE CONTRACTED BASIS FUNCTIONS ARE NOW NORMALIZED TO UNITY

  SHELL TYPE  PRIMITIVE        EXPONENT          CONTRACTION COEFFICIENT(S)

 LA        

      1   L       1             9.1730000   -0.054833023521   -0.009797991527
      1   L       2             3.1200000    0.676604290237    0.231261800020
      1   L       3             2.1040000   -1.034429443730   -0.601214480110
      1   L       4             1.3200000   -0.518907222591    0.195188831214
      1   L       5             0.4960000    1.631603699894    1.076136069429

      2   D       6             1.2380000   -0.053797021791
      2   D       7             0.6061000    0.380144153981
      2   D       8             0.2518000    0.720349291785

      3   D       9             0.0978700    1.000000000000

      4   L      10             0.6182000   -0.107095028128   -0.051868986063
      4   L      11             0.0454600    1.033448271434    1.008107729120

      5   L      12             0.0177500    1.000000000000    1.000000000000

      6   L      13             0.2004000    1.000000000000    1.000000000000

      7   D      14             0.0353600    1.000000000000

 P         

      8   S      15        312400.0000000    0.000057689641
      8   S      16         46800.0000000    0.000448246591
      8   S      17         10650.0000000    0.002349131061
      8   S      18          3018.0000000    0.009781571802
      8   S      19           986.8000000    0.034142936511
      8   S      20           357.4000000    0.100192955985
      8   S      21           139.6000000    0.234346168617
      8   S      22            57.6300000    0.382391849918
      8   S      23            24.6000000    0.318052941833
      8   S      24            10.1200000    0.070770999093
      8   S      25             4.2830000   -0.001817789630
      8   S      26             1.8050000    0.002161561737
      8   S      27             0.2782000    0.000432249354

      9   S      28        312400.0000000   -0.000016380204
      9   S      29         46800.0000000   -0.000127233535
      9   S      30         10650.0000000   -0.000668625166
      9   S      31          3018.0000000   -0.002795303744
      9   S      32           986.8000000   -0.009928227435
      9   S      33           357.4000000   -0.030244566456
      9   S      34           139.6000000   -0.077884705328
      9   S      35            57.6300000   -0.156724571545
      9   S      36            24.6000000   -0.198042753651
      9   S      37            10.1200000    0.037971251521
      9   S      38             4.2830000    0.552751544147
      9   S      39             1.8050000    0.542611452452
      9   S      40             0.2782000   -0.009675942874

     10   S      41        312400.0000000    0.000006865735
     10   S      42         46800.0000000    0.000053281983
     10   S      43         10650.0000000    0.000280421002
     10   S      44          3018.0000000    0.001170789768
     10   S      45           986.8000000    0.004173591138
     10   S      46           357.4000000    0.012720496749
     10   S      47           139.6000000    0.033152766352
     10   S      48            57.6300000    0.067671246836
     10   S      49            24.6000000    0.089831018862
     10   S      50            10.1200000   -0.020305232360
     10   S      51             4.2830000   -0.313280408979
     10   S      52             1.8050000   -0.563687905527
     10   S      53             0.2782000    1.117494073734

     11   S      54             0.6158000    1.000000000000

     12   S      55             0.1055000    1.000000000000

     13   P      56           504.9000000    0.002433660431
     13   P      57           119.4000000    0.019305559477
     13   P      58            37.9600000    0.088473106893
     13   P      59            13.9500000    0.254701981099
     13   P      60             5.4570000    0.440199242653
     13   P      61             2.1770000    0.383632006272
     13   P      62             0.2877000   -0.003946337074

     14   P      63           504.9000000   -0.000954298933
     14   P      64           119.4000000   -0.007664025747
     14   P      65            37.9600000   -0.035465925259
     14   P      66            13.9500000   -0.106164716437
     14   P      67             5.4570000   -0.187210586037
     14   P      68             2.1770000   -0.181495819791
     14   P      69             0.2877000    0.991672644618

     15   P      70             0.8010000    1.000000000000

     16   P      71             0.0971400    1.000000000000

     17   D      72             0.6480000    1.000000000000

     18   D      73             0.2180000    1.000000000000

     19   F      74             0.4520000    1.000000000000

     20   D      75             3.1200000    1.000000000000

 O         

     21   S      76         15330.0000000    0.000520198307
     21   S      77          2299.0000000    0.004023344781
     21   S      78           522.4000000    0.020729083329
     21   S      79           147.3000000    0.081082327080
     21   S      80            47.5500000    0.236226352118
     21   S      81            16.7600000    0.443518209420
     21   S      82             6.2070000    0.358670588689
     21   S      83             0.6882000   -0.008349797237

     22   S      84         15330.0000000   -0.000197236012
     22   S      85          2299.0000000   -0.001535010700
     22   S      86           522.4000000   -0.007951183914
     22   S      87           147.3000000   -0.032113452892
     22   S      88            47.5500000   -0.100269643049
     22   S      89            16.7600000   -0.234047111838
     22   S      90             6.2070000   -0.301410927756
     22   S      91             0.6882000    1.034919649508

     23   S      92             1.7520000    1.000000000000

     24   S      93             0.2384000    1.000000000000

     25   P      94            34.4600000    0.041163489568
     25   P      95             7.7490000    0.257762835858
     25   P      96             2.2800000    0.802419274427

     26   P      97             0.7156000    1.000000000000

     27   P      98             0.2140000    1.000000000000

     28   D      99             2.3140000    1.000000000000

     29   D     100             0.6450000    1.000000000000

     30   F     101             1.4280000    1.000000000000

 C         

     31   S     102          8236.0000000    0.000542430189
     31   S     103          1235.0000000    0.004196427901
     31   S     104           280.8000000    0.021540914108
     31   S     105            79.2700000    0.083614949614
     31   S     106            25.5900000    0.239871618922
     31   S     107             8.9970000    0.443751820060
     31   S     108             3.3190000    0.353579696469
     31   S     109             0.3643000   -0.009176366076

     32   S     110          8236.0000000   -0.000196392234
     32   S     111          1235.0000000   -0.001525950274
     32   S     112           280.8000000   -0.007890449028
     32   S     113            79.2700000   -0.031514870532
     32   S     114            25.5900000   -0.096910008320
     32   S     115             8.9970000   -0.220541526288
     32   S     116             3.3190000   -0.296069112937
     32   S     117             0.3643000    1.040503432950

     33   S     118             0.9059000    1.000000000000

     34   S     119             0.1285000    1.000000000000

     35   P     120            18.7100000    0.039426387165
     35   P     121             4.1330000    0.244088984924
     35   P     122             1.2000000    0.815492008943

     36   P     123             0.3827000    1.000000000000

     37   P     124             0.1209000    1.000000000000

     38   D     125             1.0970000    1.000000000000

     39   D     126             0.3180000    1.000000000000

     40   F     127             0.7610000    1.000000000000

 C         

     41   S     128          8236.0000000    0.000542430189
     41   S     129          1235.0000000    0.004196427901
     41   S     130           280.8000000    0.021540914108
     41   S     131            79.2700000    0.083614949614
     41   S     132            25.5900000    0.239871618922
     41   S     133             8.9970000    0.443751820060
     41   S     134             3.3190000    0.353579696469
     41   S     135             0.3643000   -0.009176366076

     42   S     136          8236.0000000   -0.000196392234
     42   S     137          1235.0000000   -0.001525950274
     42   S     138           280.8000000   -0.007890449028
     42   S     139            79.2700000   -0.031514870532
     42   S     140            25.5900000   -0.096910008320
     42   S     141             8.9970000   -0.220541526288
     42   S     142             3.3190000   -0.296069112937
     42   S     143             0.3643000    1.040503432950

     43   S     144             0.9059000    1.000000000000

     44   S     145             0.1285000    1.000000000000

     45   P     146            18.7100000    0.039426387165
     45   P     147             4.1330000    0.244088984924
     45   P     148             1.2000000    0.815492008943

     46   P     149             0.3827000    1.000000000000

     47   P     150             0.1209000    1.000000000000

     48   D     151             1.0970000    1.000000000000

     49   D     152             0.3180000    1.000000000000

     50   F     153             0.7610000    1.000000000000

 C         

     51   S     154          8236.0000000    0.000542430189
     51   S     155          1235.0000000    0.004196427901
     51   S     156           280.8000000    0.021540914108
     51   S     157            79.2700000    0.083614949614
     51   S     158            25.5900000    0.239871618922
     51   S     159             8.9970000    0.443751820060
     51   S     160             3.3190000    0.353579696469
     51   S     161             0.3643000   -0.009176366076

     52   S     162          8236.0000000   -0.000196392234
     52   S     163          1235.0000000   -0.001525950274
     52   S     164           280.8000000   -0.007890449028
     52   S     165            79.2700000   -0.031514870532
     52   S     166            25.5900000   -0.096910008320
     52   S     167             8.9970000   -0.220541526288
     52   S     168             3.3190000   -0.296069112937
     52   S     169             0.3643000    1.040503432950

     53   S     170             0.9059000    1.000000000000

     54   S     171             0.1285000    1.000000000000

     55   P     172            18.7100000    0.039426387165
     55   P     173             4.1330000    0.244088984924
     55   P     174             1.2000000    0.815492008943

     56   P     175             0.3827000    1.000000000000

     57   P     176             0.1209000    1.000000000000

     58   D     177             1.0970000    1.000000000000

     59   D     178             0.3180000    1.000000000000

     60   F     179             0.7610000    1.000000000000

 H         

     61   S     180            33.8700000    0.025494863235
     61   S     181             5.0950000    0.190362765893
     61   S     182             1.1590000    0.852162022245

     62   S     183             0.3258000    1.000000000000

     63   S     184             0.1027000    1.000000000000

     64   P     185             1.4070000    1.000000000000

     65   P     186             0.3880000    1.000000000000

     66   D     187             1.0570000    1.000000000000

 H         

     67   S     188            33.8700000    0.025494863235
     67   S     189             5.0950000    0.190362765893
     67   S     190             1.1590000    0.852162022245

     68   S     191             0.3258000    1.000000000000

     69   S     192             0.1027000    1.000000000000

     70   P     193             1.4070000    1.000000000000

     71   P     194             0.3880000    1.000000000000

     72   D     195             1.0570000    1.000000000000

 H         

     73   S     196            33.8700000    0.025494863235
     73   S     197             5.0950000    0.190362765893
     73   S     198             1.1590000    0.852162022245

     74   S     199             0.3258000    1.000000000000

     75   S     200             0.1027000    1.000000000000

     76   P     201             1.4070000    1.000000000000

     77   P     202             0.3880000    1.000000000000

     78   D     203             1.0570000    1.000000000000

 H         

     79   S     204            33.8700000    0.025494863235
     79   S     205             5.0950000    0.190362765893
     79   S     206             1.1590000    0.852162022245

     80   S     207             0.3258000    1.000000000000

     81   S     208             0.1027000    1.000000000000

     82   P     209             1.4070000    1.000000000000

     83   P     210             0.3880000    1.000000000000

     84   D     211             1.0570000    1.000000000000

 H         

     85   S     212            33.8700000    0.025494863235
     85   S     213             5.0950000    0.190362765893
     85   S     214             1.1590000    0.852162022245

     86   S     215             0.3258000    1.000000000000

     87   S     216             0.1027000    1.000000000000

     88   P     217             1.4070000    1.000000000000

     89   P     218             0.3880000    1.000000000000

     90   D     219             1.0570000    1.000000000000

 H         

     91   S     220            33.8700000    0.025494863235
     91   S     221             5.0950000    0.190362765893
     91   S     222             1.1590000    0.852162022245

     92   S     223             0.3258000    1.000000000000

     93   S     224             0.1027000    1.000000000000

     94   P     225             1.4070000    1.000000000000

     95   P     226             0.3880000    1.000000000000

     96   D     227             1.0570000    1.000000000000

 H         

     97   S     228            33.8700000    0.025494863235
     97   S     229             5.0950000    0.190362765893
     97   S     230             1.1590000    0.852162022245

     98   S     231             0.3258000    1.000000000000

     99   S     232             0.1027000    1.000000000000

    100   P     233             1.4070000    1.000000000000

    101   P     234             0.3880000    1.000000000000

    102   D     235             1.0570000    1.000000000000

 H         

    103   S     236            33.8700000    0.025494863235
    103   S     237             5.0950000    0.190362765893
    103   S     238             1.1590000    0.852162022245

    104   S     239             0.3258000    1.000000000000

    105   S     240             0.1027000    1.000000000000

    106   P     241             1.4070000    1.000000000000

    107   P     242             0.3880000    1.000000000000

    108   D     243             1.0570000    1.000000000000

 H         

    109   S     244            33.8700000    0.025494863235
    109   S     245             5.0950000    0.190362765893
    109   S     246             1.1590000    0.852162022245

    110   S     247             0.3258000    1.000000000000

    111   S     248             0.1027000    1.000000000000

    112   P     249             1.4070000    1.000000000000

    113   P     250             0.3880000    1.000000000000

    114   D     251             1.0570000    1.000000000000

 TOTAL NUMBER OF BASIS SET SHELLS             =  114
 NUMBER OF CARTESIAN GAUSSIAN BASIS FUNCTIONS =  354
 NOTE: THIS RUN WILL RESTRICT THE MO VARIATION SPACE TO SPHERICAL HARMONICS.
 THE NUMBER OF ORBITALS KEPT IN THE VARIATIONAL SPACE WILL BE PRINTED LATER.
 NUMBER OF ELECTRONS                          =  104
 CHARGE OF MOLECULE                           =    3
 SPIN MULTIPLICITY                            =    1
 NUMBER OF OCCUPIED ORBITALS (ALPHA)          =   52
 NUMBER OF OCCUPIED ORBITALS (BETA )          =   52
 TOTAL NUMBER OF ATOMS                        =   15
 THE NUCLEAR REPULSION ENERGY IS      645.6944092239
 NOTE THIS RUN IS USING CORE POTENTIALS, AND THE NUMBER OF ELECTRONS,
 OCCUPIED ORBITALS, AND NUCLEAR REPULSION ENERGY WILL BE ADJUSTED BELOW
 AFTER REMOVAL OF THE CORE CHARGES.

     $CONTRL OPTIONS
     ---------------
 SCFTYP=RHF          RUNTYP=OPTIMIZE     EXETYP=RUN     
 MPLEVL=       2     CITYP =NONE         CCTYP =NONE         VBTYP =NONE    
 DFTTYP=NONE         TDDFT =NONE    
 MULT  =       1     ICHARG=       3     NZVAR =      39     COORD =UNIQUE  
 PP    =READ         RELWFN=NONE         LOCAL =NONE         NUMGRD=       F
 ISPHER=       1     NOSYM =       0     MAXIT =     200     UNITS =ANGS    
 PLTORB=       F     MOLPLT=       F     AIMPAC=       F     FRIEND=        
 NPRINT=       7     IREST =       0     GEOM  =INPUT   
 NORMF =       0     NORMP =       0     ITOL  =      20     ICUT  =      11
 INTTYP=BEST         GRDTYP=BEST         QMTTOL= 1.0E-06

     $SYSTEM OPTIONS
     ---------------
  REPLICATED MEMORY=   300000000 WORDS (ON EVERY NODE).
 DISTRIBUTED MEMDDI=         300 MILLION WORDS IN AGGREGATE,
 MEMDDI DISTRIBUTED OVER  16 PROCESSORS IS    18750000 WORDS/PROCESSOR.
 TOTAL MEMORY REQUESTED ON EACH PROCESSOR=   318750000 WORDS.
 TIMLIM=      525600.00 MINUTES, OR     365.0 DAYS.
 PARALL= T  BALTYP=  DLB     KDIAG=    0  COREFL= F
 MXSEQ2=     300 MXSEQ3=     150  mem10=         0

          --------------
          ECP POTENTIALS
          --------------

 PARAMETERS FOR "LA-ECP  " ON ATOM    1 WITH ZCORE  46 AND LMAX  4 ARE
 FOR L= 4      COEFF    N           ZETA
    1       -2.85665    1        1.42345
 FOR L= 0      COEFF    N           ZETA
    1        8.85347    0       22.29739
    2      -68.41778    2        1.64320
    3      110.12463    2        1.85122
 FOR L= 1      COEFF    N           ZETA
    1        2.98675    0        1.77635
    2      -35.51815    2        3.98941
    3       53.65423    2        2.47524
 FOR L= 2      COEFF    N           ZETA
    1        1.67298    0        1.52169
    2       18.46625    2        1.52182
 FOR L= 3      COEFF    N           ZETA
    1       -4.64430    1        2.67762
    2      -14.43101    1       10.06608

 THE ECP RUN REMOVES   46 CORE ELECTRONS, AND THE SAME NUMBER OF PROTONS.
 NUMBER OF ELECTRONS KEPT IN THE CALCULATION IS =   58
 NUMBER OF OCCUPIED ORBITALS (ALPHA) KEPT IS    =   29
 NUMBER OF OCCUPIED ORBITALS (BETA ) KEPT IS    =   29
 THE ADJUSTED NUCLEAR REPULSION ENERGY=      330.0070750271
          ECP ANGULAR INTS.........     0.03 SECONDS

          ----------------
          PROPERTIES INPUT
          ----------------

     MOMENTS            FIELD           POTENTIAL          DENSITY
 IEMOM =       1   IEFLD =       0   IEPOT =       0   IEDEN =       0
 WHERE =COMASS     WHERE =NUCLEI     WHERE =NUCLEI     WHERE =NUCLEI  
 OUTPUT=BOTH       OUTPUT=BOTH       OUTPUT=BOTH       OUTPUT=BOTH    
 IEMINT=       0   IEFINT=       0                     IEDINT=       0
                                                       MORB  =       0
          EXTRAPOLATION IN EFFECT
          SOSCF IN EFFECT
 ORBITAL PRINTING OPTION: NPREO=     1   354     2     1

     -------------------------------
     INTEGRAL TRANSFORMATION OPTIONS
     -------------------------------
     NWORD  =            0
     CUTOFF = 1.0E-09     MPTRAN =       0
     DIRTRF =       T     AOINTS =DUP     

          ----------------------
          INTEGRAL INPUT OPTIONS
          ----------------------
 NOPK  =       1 NORDER=       0 SCHWRZ=       T

          -----------------------
          MP2 CONTROL INFORMATION
          -----------------------
          NACORE =       13  NBCORE =       13
          LMOMP2 =        F  AOINTS = DUP     
          METHOD =        2  NWORD  =               0
          MP2PRP =        F  OSPT   = NONE    
          CUTOFF = 1.00E-09  CPHFBS = BASISAO 
          CODE   = DDI     

          NUMBER OF CORE -A-  ORBITALS =    13
          NUMBER OF CORE -B-  ORBITALS =    13
          NUMBER OF OCC. -A-  ORBITALS =    29
          NUMBER OF OCC. -B-  ORBITALS =    29
          NUMBER OF MOLECULAR ORBITALS =   354
          NUMBER OF   BASIS  FUNCTIONS =   354

 
 
 -----------------------------------------------
  STATISTICS ON AUTOMATIC COORDINATE GENERATION 
 -----------------------------------------------
  NUMBER OF USER SPECIFIED BONDS                              0
  NUMBER OF BONDS                                            14
  NUMBER OF ANGLES                                           25
  NUMBER OF TORSIONS                                         30
  NUMBER OF EXTRA COORD.                                      0
  NUMBER OF EXTRA COORD. FOR CONSTRAINTS                      0
  NUMBER OF CONSTRAINED COORD.                                1
 
  TOTAL NUMBER OF PRIMITIVES                                 69
 -----------------------------------------------

   --- ENCODED Z MATRIX ---
 COORD  TYPE   I   J   K   L   M   N
    1      1    1   3
    2      1    2   4
    3      1    2   3
    4      1    2   6
    5      1    2   5
    6      1    4   8
    7      1    4   7
    8      1    4   9
    9      1    5  12
   10      1    5  11
   11      1    5  10
   12      1    6  15
   13      1    6  14
   14      1    6  13
   15      2    1   3   2
   16      2    2   5  11
   17      2    2   4   8
   18      2    2   6  13
   19      2    2   6  14
   20      2    2   4   9
   21      2    2   5  12
   22      2    2   5  10
   23      2    2   4   7
   24      2    2   6  15
   25      2    3   2   4
   26      2    3   2   5
   27      2    3   2   6
   28      2    4   2   6
   29      2    4   2   5
   30      2    5   2   6
   31      2    7   4   9
   32      2    7   4   8
   33      2    8   4   9
   34      2   10   5  11
   35      2   10   5  12
   36      2   11   5  12
   37      2   13   6  14
   38      2   13   6  15
   39      2   14   6  15
   40      3    1   3   2   5
   41      3    1   3   2   4
   42      3    1   3   2   6
   43      3    3   2   4   8
   44      3    3   2   6  15
   45      3    3   2   6  14
   46      3    3   2   4   7
   47      3    3   2   5  10
   48      3    3   2   6  13
   49      3    3   2   5  11
   50      3    3   2   5  12
   51      3    3   2   4   9
   52      3    4   2   6  15
   53      3    4   2   6  14
   54      3    4   2   5  10
   55      3    4   2   6  13
   56      3    4   2   5  12
   57      3    4   2   5  11
   58      3    5   2   6  15
   59      3    5   2   6  14
   60      3    5   2   4   7
   61      3    5   2   6  13
   62      3    5   2   4   9
   63      3    5   2   4   8
   64      3    6   2   4   7
   65      3    6   2   5  10
   66      3    6   2   5  11
   67      3    6   2   5  12
   68      3    6   2   4   9
   69      3    6   2   4   8

          INDEP./SYM. INTERNAL COORDINATES
          --------------------------------
 CRD  1=   1.0000 (  1)
 CRD  2=   0.1302 ( 20)  0.1245 ( 22) -0.1012 ( 23)  0.1254 ( 24)  0.1574 ( 25)
           0.2113 ( 26) -0.3687 ( 27)  0.2832 ( 28) -0.4942 ( 29)  0.2110 ( 30)
           0.1831 ( 40) -0.2016 ( 41) -0.1261 ( 46)  0.1206 ( 50)  0.1248 ( 52)
           0.1640 ( 53) -0.1411 ( 58) -0.1020 ( 59) -0.1693 ( 61) -0.1218 ( 65)
          -0.1553 ( 66)  0.1000 ( 68)  0.1440 ( 69)
 CRD  3=  -0.2677 (  2)  0.2429 (  5)  0.4335 ( 15)  0.1930 ( 18) -0.1809 ( 19)
          -0.1461 ( 20)  0.1674 ( 22) -0.3181 ( 28)  0.3507 ( 30)  0.1450 ( 40)
           0.1079 ( 41) -0.2529 ( 42)  0.1684 ( 44) -0.1002 ( 63)  0.1231 ( 64)
           0.1255 ( 65)  0.1245 ( 67)  0.1242 ( 68)
 CRD  4=  -0.1691 (  2)  0.3963 (  4) -0.2272 (  5)  0.1423 ( 18)  0.1686 ( 19)
          -0.2183 ( 21) -0.2088 ( 23) -0.1124 ( 25) -0.1509 ( 26)  0.2633 ( 27)
          -0.1359 ( 29) -0.1263 ( 37)  0.1404 ( 40) -0.1552 ( 41)  0.2416 ( 43)
           0.1979 ( 46) -0.1505 ( 47) -0.2191 ( 49) -0.1851 ( 50)  0.1721 ( 51)
           0.1491 ( 54)  0.1145 ( 56) -0.1249 ( 60) -0.1507 ( 62)  0.1072 ( 65)
          -0.1195 ( 68)
 CRD  5=  -0.3965 (  2) -0.3965 (  4) -0.3965 (  5) -0.2736 ( 16) -0.2736 ( 17)
          -0.2736 ( 24)  0.1192 ( 32)  0.1193 ( 33)  0.1192 ( 34)  0.1191 ( 36)
           0.1191 ( 38)  0.1192 ( 39) -0.1211 ( 54)  0.1211 ( 55) -0.1211 ( 59)
           0.1211 ( 62) -0.1211 ( 64)  0.1211 ( 67)
 CRD  6=  -0.2466 (  2) -0.3433 (  3) -0.2465 (  4) -0.2459 (  5)  0.2310 ( 16)
           0.2314 ( 17) -0.2133 ( 18) -0.2126 ( 19) -0.2127 ( 20) -0.2132 ( 21)
          -0.2121 ( 22) -0.2138 ( 23)  0.2310 ( 24)  0.1638 ( 31)  0.1636 ( 35)
           0.1637 ( 37)  0.1289 ( 54) -0.1289 ( 55)  0.1288 ( 59) -0.1288 ( 62)
           0.1288 ( 64) -0.1287 ( 67)
 CRD  7=   0.3516 (  2) -0.3225 (  5) -0.1100 ( 13)  0.1094 ( 14)  0.1257 ( 15)
          -0.2196 ( 16)  0.2381 ( 17)  0.3858 ( 18) -0.3955 ( 19) -0.1242 ( 20)
          -0.2614 ( 21)  0.1781 ( 22)  0.2163 ( 23) -0.1932 ( 32)  0.2002 ( 36)
          -0.1289 ( 38)  0.1503 ( 39)
 CRD  8=  -0.1389 (  2)  0.3165 (  4) -0.1779 (  5) -0.1971 ( 16) -0.1512 ( 17)
          -0.3522 ( 20)  0.3445 ( 21) -0.3195 ( 22)  0.3694 ( 23)  0.3500 ( 24)
           0.1896 ( 33)  0.1975 ( 34) -0.1540 ( 38) -0.1335 ( 39)
 CRD  9=  -0.1346 (  2)  0.1224 (  5) -0.3115 ( 15) -0.4059 ( 16)  0.4467 ( 17)
          -0.2651 ( 20)  0.2545 ( 21)  0.2379 ( 22) -0.2772 ( 23)  0.2213 ( 31)
          -0.2012 ( 35)  0.1022 ( 67)
 CRD 10=  -0.3704 ( 18)  0.3708 ( 19) -0.3714 ( 20) -0.3697 ( 21)  0.3711 ( 22)
           0.3702 ( 23) -0.1315 ( 32)  0.1311 ( 33) -0.1307 ( 34)  0.1314 ( 36)
           0.1312 ( 38) -0.1311 ( 39)
 CRD 11=   0.1020 ( 11)  0.1414 ( 12) -0.2915 ( 16) -0.2170 ( 17) -0.2785 ( 18)
          -0.2414 ( 19)  0.3056 ( 20)  0.3255 ( 22)  0.5078 ( 24)  0.1185 ( 32)
          -0.1319 ( 35)  0.1262 ( 36)  0.2296 ( 37) -0.1080 ( 39)
 CRD 12=   0.7678 (  3)  0.1063 (  6)  0.1054 ( 10)  0.1058 ( 12)  0.2243 ( 16)
           0.2265 ( 17) -0.1100 ( 18) -0.1078 ( 19) -0.1087 ( 20) -0.1085 ( 21)
          -0.1088 ( 22) -0.1101 ( 23)  0.2253 ( 24)  0.1158 ( 31)  0.1152 ( 35)
           0.1154 ( 37)
 CRD 13=  -0.1817 (  2)  0.1648 (  5) -0.1257 (  6)  0.1146 ( 10) -0.4435 ( 15)
           0.2262 ( 16) -0.2482 ( 17)  0.2514 ( 18) -0.2556 ( 19) -0.1626 ( 21)
           0.1287 ( 22)  0.1269 ( 23) -0.2008 ( 25)  0.1825 ( 26)  0.1304 ( 28)
          -0.1440 ( 30)  0.1643 ( 33) -0.1675 ( 34) -0.1094 ( 38) -0.1208 ( 52)
          -0.1428 ( 53)  0.1058 ( 54) -0.1410 ( 55)  0.1227 ( 56)  0.1022 ( 57)
          -0.1141 ( 58) -0.1361 ( 59)  0.1074 ( 60) -0.1343 ( 61)
 CRD 14=  -0.2088 ( 43) -0.2088 ( 44) -0.1810 ( 45) -0.1811 ( 46) -0.1809 ( 47)
          -0.1811 ( 48) -0.2087 ( 49) -0.1809 ( 50) -0.1811 ( 51) -0.2088 ( 52)
          -0.1810 ( 53) -0.1810 ( 54) -0.1811 ( 55) -0.1809 ( 56) -0.2088 ( 57)
          -0.2088 ( 58) -0.1810 ( 59) -0.1810 ( 60) -0.1811 ( 61) -0.1811 ( 62)
          -0.2087 ( 63) -0.1811 ( 64) -0.1810 ( 65) -0.2088 ( 66) -0.1809 ( 67)
          -0.1811 ( 68) -0.2087 ( 69)
 CRD 15=   0.1147 (  7)  0.1411 (  9) -0.2016 ( 13) -0.1962 ( 14) -0.1019 ( 39)
          -0.2651 ( 43) -0.2450 ( 46)  0.2424 ( 47)  0.2407 ( 49)  0.2184 ( 50)
          -0.2629 ( 51)  0.1792 ( 54)  0.1552 ( 56)  0.1774 ( 57) -0.1779 ( 60)
          -0.1957 ( 62) -0.1979 ( 63) -0.1886 ( 64)  0.1936 ( 65)  0.1919 ( 66)
           0.1696 ( 67) -0.2064 ( 68) -0.2087 ( 69)
 CRD 16=   0.3972 (  6)  0.3483 (  7)  0.3112 (  8) -0.3147 (  9) -0.3413 ( 10)
          -0.2544 ( 11)  0.1060 ( 16) -0.1230 ( 17) -0.1766 ( 20)  0.1140 ( 21)
           0.1633 ( 22) -0.1453 ( 23)  0.1844 ( 31)  0.1225 ( 32)  0.1405 ( 33)
          -0.1273 ( 34) -0.1589 ( 35)
 CRD 17=   0.1671 (  6)  0.1790 (  8)  0.1602 (  9)  0.2636 ( 10)  0.2491 ( 11)
          -0.4304 ( 12) -0.3252 ( 13) -0.3387 ( 14)  0.1619 ( 18)  0.1721 ( 19)
          -0.1339 ( 21) -0.1009 ( 23)  0.1239 ( 24)  0.1195 ( 35) -0.1948 ( 37)
          -0.1299 ( 38) -0.1356 ( 39)  0.1042 ( 60)  0.1086 ( 62)  0.1023 ( 63)
           0.1008 ( 68)
 CRD 18=  -0.1007 (  2) -0.1008 (  4) -0.1007 (  5) -0.2692 (  6) -0.3024 (  7)
          -0.3023 (  8) -0.3026 (  9) -0.2691 ( 10) -0.3024 ( 11) -0.2695 ( 12)
          -0.3028 ( 13) -0.3027 ( 14)  0.1121 ( 16)  0.1121 ( 17)  0.1014 ( 18)
           0.1015 ( 19)  0.1013 ( 20)  0.1013 ( 21)  0.1014 ( 22)  0.1012 ( 23)
           0.1122 ( 24) -0.1067 ( 31) -0.1049 ( 32) -0.1050 ( 33) -0.1049 ( 34)
          -0.1069 ( 35) -0.1049 ( 36) -0.1070 ( 37) -0.1049 ( 38) -0.1050 ( 39)
 CRD 19=  -0.1532 (  2)  0.1389 (  5) -0.1682 (  7) -0.2787 (  8)  0.1281 (  9)
           0.2771 ( 11) -0.1093 ( 13)  0.1512 ( 14) -0.2143 ( 15) -0.1074 ( 43)
           0.2516 ( 44)  0.2356 ( 45) -0.1366 ( 47)  0.2361 ( 48) -0.1442 ( 49)
          -0.1336 ( 50) -0.1024 ( 51)  0.2104 ( 52)  0.1944 ( 53)  0.1949 ( 55)
          -0.1044 ( 57)  0.2139 ( 58)  0.1980 ( 59)  0.1985 ( 61) -0.1014 ( 64)
          -0.1313 ( 65) -0.1389 ( 66) -0.1283 ( 67) -0.1046 ( 68) -0.1096 ( 69)
 CRD 20=   0.1946 (  6) -0.2700 (  8)  0.2746 ( 10) -0.2904 ( 11) -0.4796 ( 12)
           0.2097 ( 13)  0.2491 ( 14)  0.1493 ( 32) -0.1395 ( 35)  0.1605 ( 36)
           0.2436 ( 37) -0.1148 ( 38) -0.1363 ( 39) -0.1333 ( 45)  0.1298 ( 48)
          -0.1394 ( 53)  0.1237 ( 55) -0.1265 ( 59)  0.1366 ( 61)
 CRD 21=  -0.4044 (  6)  0.2851 (  7) -0.3079 (  9)  0.3655 ( 10) -0.2729 ( 13)
           0.2324 ( 14)  0.2090 ( 31) -0.1593 ( 33)  0.1703 ( 34) -0.1888 ( 35)
           0.1429 ( 38) -0.1194 ( 39)  0.1223 ( 44) -0.1014 ( 46)  0.1113 ( 47)
           0.1189 ( 51)  0.1253 ( 52)  0.1060 ( 54)  0.1246 ( 58) -0.1068 ( 60)
           0.1135 ( 62)  0.1133 ( 65)  0.1222 ( 68)
 CRD 22=  -0.3846 (  6)  0.1856 (  7)  0.1661 (  8)  0.1605 (  9) -0.3812 ( 10)
           0.1877 ( 11) -0.3766 ( 12)  0.1813 ( 13)  0.1624 ( 14)  0.1956 ( 31)
          -0.1036 ( 33)  0.1937 ( 35) -0.1049 ( 36)  0.1914 ( 37) -0.1014 ( 38)
          -0.1015 ( 45) -0.1036 ( 46) -0.1022 ( 47)  0.1049 ( 48)  0.1067 ( 50)
           0.1072 ( 51) -0.1174 ( 54)  0.1202 ( 55) -0.1168 ( 59)  0.1224 ( 62)
          -0.1188 ( 64)  0.1220 ( 67)
 CRD 23=  -0.3134 (  7)  0.3284 (  8)  0.3222 (  9) -0.3126 ( 11) -0.3144 ( 13)
           0.3254 ( 14) -0.1765 ( 32)  0.1680 ( 33) -0.1730 ( 34)  0.1677 ( 36)
           0.1685 ( 38) -0.1747 ( 39)  0.1256 ( 43)  0.1255 ( 44)  0.1242 ( 49)
           0.1261 ( 52)  0.1237 ( 57)  0.1250 ( 58)  0.1260 ( 63)  0.1247 ( 66)
           0.1250 ( 69)
 CRD 24=  -0.4033 (  7)  0.3141 (  8) -0.3871 (  9)  0.1239 ( 10)  0.2617 ( 11)
          -0.2097 ( 12)  0.1442 ( 13) -0.1745 ( 32)  0.2283 ( 33)  0.2201 ( 34)
          -0.1440 ( 36)  0.1216 ( 37)  0.1155 ( 43)  0.1292 ( 47) -0.1048 ( 49)
          -0.1275 ( 51)  0.1432 ( 54) -0.1418 ( 62)  0.1012 ( 63)  0.1370 ( 65)
          -0.1375 ( 68)  0.1056 ( 69)
 CRD 25=   0.2499 (  6) -0.2328 (  8) -0.1196 (  9) -0.2236 ( 10)  0.2794 ( 11)
          -0.3352 ( 13)  0.3546 ( 14) -0.1518 ( 31)  0.1581 ( 32)  0.1359 ( 35)
          -0.1856 ( 36)  0.2072 ( 38) -0.2216 ( 39) -0.1389 ( 45)  0.1323 ( 46)
          -0.1229 ( 48)  0.1452 ( 50) -0.1545 ( 53) -0.1385 ( 55)  0.1467 ( 56)
          -0.1563 ( 59)  0.1303 ( 60) -0.1402 ( 61)  0.1482 ( 64)  0.1628 ( 67)
 CRD 26=  -0.1053 (  2)  0.2467 (  4) -0.1414 (  5) -0.2387 (  7) -0.2618 (  9)
           0.1285 ( 12)  0.2565 ( 13)  0.2315 ( 14)  0.1653 ( 18)  0.1875 ( 19)
          -0.2093 ( 21) -0.1946 ( 23)  0.1089 ( 24) -0.1273 ( 27) -0.1065 ( 28)
           0.1859 ( 29)  0.1591 ( 32)  0.1289 ( 35)  0.1663 ( 36) -0.2252 ( 37)
          -0.1088 ( 38) -0.1289 ( 39) -0.1344 ( 40)  0.1488 ( 41) -0.1555 ( 43)
           0.1412 ( 49) -0.1375 ( 54) -0.1165 ( 56)  0.1221 ( 60)  0.1377 ( 62)
 CRD 27=   0.4667 (  3) -0.2684 (  6) -0.2679 ( 10) -0.2681 ( 12) -0.1524 ( 16)
          -0.1528 ( 17) -0.1526 ( 24)  0.1599 ( 32)  0.1605 ( 33)  0.1599 ( 34)
           0.1596 ( 36)  0.1597 ( 38)  0.1603 ( 39) -0.1010 ( 52)  0.1758 ( 54)
          -0.1756 ( 55)  0.1008 ( 57)  0.1008 ( 58)  0.1759 ( 59) -0.1758 ( 62)
          -0.1007 ( 63)  0.1756 ( 64) -0.1011 ( 66) -0.1758 ( 67)  0.1010 ( 69)
 CRD 28=   0.1304 (  6)  0.1621 (  7)  0.2589 (  8) -0.1262 (  9) -0.1188 ( 10)
          -0.2560 ( 11) -0.1330 ( 14) -0.2221 ( 15) -0.1450 ( 16)  0.1593 ( 17)
           0.2153 ( 20) -0.1371 ( 21) -0.2067 ( 22)  0.1633 ( 23) -0.1668 ( 25)
           0.1511 ( 26) -0.2273 ( 31) -0.1187 ( 32) -0.1940 ( 33)  0.1926 ( 34)
           0.2062 ( 35)  0.1031 ( 38) -0.1227 ( 42) -0.1099 ( 43)  0.2575 ( 44)
           0.1840 ( 45) -0.1152 ( 47)  0.1856 ( 48) -0.1475 ( 49)
 CRD 29=   0.3201 (  2) -0.1840 (  3)  0.3202 (  4)  0.3197 (  5) -0.1796 (  7)
          -0.1793 (  8) -0.1796 (  9) -0.1792 ( 11) -0.1794 ( 13) -0.1796 ( 14)
          -0.1222 ( 16) -0.1223 ( 17) -0.1570 ( 18) -0.1569 ( 19) -0.1569 ( 20)
          -0.1568 ( 21) -0.1568 ( 22) -0.1569 ( 23) -0.1223 ( 24)  0.2242 ( 31)
           0.1057 ( 32)  0.1055 ( 33)  0.1052 ( 34)  0.2241 ( 35)  0.1055 ( 36)
           0.2242 ( 37)  0.1056 ( 38)  0.1055 ( 39)
 CRD 30=   0.2350 (  2) -0.5504 (  4)  0.3157 (  5) -0.1610 (  8) -0.1109 ( 10)
          -0.1737 ( 11)  0.1936 ( 12)  0.1390 ( 13)  0.1570 ( 14) -0.1066 ( 16)
           0.1832 ( 18)  0.1796 ( 19) -0.1217 ( 22)  0.1859 ( 24)  0.1579 ( 33)
           0.1796 ( 34) -0.1639 ( 37) -0.2020 ( 38) -0.1882 ( 39)
 CRD 31=  -0.1876 (  3) -0.1767 (  6) -0.1765 ( 10) -0.1766 ( 12)  0.1279 ( 16)
           0.1278 ( 17)  0.1278 ( 24)  0.1001 ( 26)  0.1000 ( 27) -0.1360 ( 31)
          -0.1359 ( 35) -0.1359 ( 37)  0.1286 ( 45)  0.1280 ( 46)  0.1283 ( 47)
          -0.1279 ( 48) -0.1282 ( 50) -0.1285 ( 51)  0.1325 ( 52)  0.2612 ( 53)
          -0.2610 ( 56) -0.1332 ( 57) -0.1332 ( 58)  0.2609 ( 60) -0.2609 ( 61)
           0.1332 ( 63)  0.2613 ( 65)  0.1326 ( 66) -0.2612 ( 68) -0.1324 ( 69)
 CRD 32=   0.4609 (  2) -0.4182 (  5) -0.1574 (  6) -0.1534 (  7)  0.1742 (  9)
           0.1428 ( 10)  0.1952 ( 13) -0.1813 ( 14) -0.1279 ( 15)  0.1037 ( 16)
          -0.1145 ( 17) -0.1135 ( 20)  0.1084 ( 21)  0.1020 ( 22) -0.1183 ( 23)
          -0.1018 ( 25)  0.1997 ( 32) -0.2080 ( 36)  0.1307 ( 38) -0.1564 ( 39)
          -0.1032 ( 43)  0.2419 ( 44) -0.1386 ( 49)  0.1044 ( 52)  0.1025 ( 58)
 CRD 33=   0.2306 (  7) -0.2309 (  8) -0.2311 (  9)  0.2314 ( 11)  0.2312 ( 13)
          -0.2308 ( 14) -0.1772 ( 32)  0.1769 ( 33) -0.1772 ( 34)  0.1775 ( 36)
           0.1774 ( 38) -0.1771 ( 39)  0.1514 ( 43)  0.1515 ( 44) -0.1131 ( 45)
          -0.1134 ( 46) -0.1132 ( 47) -0.1136 ( 48)  0.1516 ( 49) -0.1137 ( 50)
          -0.1130 ( 51)  0.1516 ( 52) -0.1130 ( 53) -0.1131 ( 54) -0.1135 ( 55)
          -0.1136 ( 56)  0.1517 ( 57)  0.1515 ( 58) -0.1131 ( 59) -0.1135 ( 60)
          -0.1136 ( 61) -0.1131 ( 62)  0.1513 ( 63) -0.1135 ( 64) -0.1131 ( 65)
           0.1517 ( 66) -0.1136 ( 67) -0.1131 ( 68)  0.1513 ( 69)
 CRD 34=   0.1321 (  6)  0.1088 (  7) -0.2256 (  8)  0.1597 ( 10) -0.2257 ( 11)
          -0.2910 ( 12)  0.1165 ( 13)  0.1406 ( 14)  0.1055 ( 20)  0.1052 ( 22)
           0.1358 ( 29) -0.1830 ( 32)  0.1148 ( 35) -0.1854 ( 36) -0.2093 ( 37)
           0.1132 ( 38)  0.1316 ( 39)  0.1015 ( 43)  0.1822 ( 45) -0.1752 ( 46)
          -0.1692 ( 48)  0.1854 ( 50)  0.1456 ( 53) -0.2058 ( 55)  0.1676 ( 56)
          -0.1115 ( 57)  0.2187 ( 59) -0.1612 ( 60) -0.1327 ( 61)  0.1155 ( 63)
          -0.1939 ( 64)  0.2080 ( 67)
 CRD 35=  -0.2875 (  6)  0.1940 (  7) -0.1978 (  9)  0.2683 ( 10) -0.1525 ( 13)
           0.1350 ( 14)  0.1002 ( 17) -0.1001 ( 28)  0.1067 ( 30) -0.2080 ( 31)
           0.1707 ( 33) -0.1723 ( 34)  0.1940 ( 35) -0.1180 ( 38)  0.1016 ( 39)
           0.1305 ( 46) -0.2150 ( 47)  0.1077 ( 48)  0.1099 ( 50) -0.2175 ( 51)
          -0.2479 ( 54)  0.1200 ( 55)  0.1167 ( 61) -0.2508 ( 62)  0.1546 ( 64)
          -0.1942 ( 65)  0.1307 ( 67) -0.1933 ( 68)
 CRD 36=   0.1560 (  4)  0.2432 (  7) -0.1495 (  8)  0.2407 (  9) -0.1078 ( 10)
          -0.1154 ( 11)  0.1892 ( 12) -0.1275 ( 13)  0.1032 ( 20) -0.1173 ( 21)
          -0.1242 ( 23) -0.1079 ( 24)  0.1292 ( 29) -0.1208 ( 32)  0.1754 ( 33)
           0.1710 ( 34)  0.1712 ( 37)  0.1021 ( 41)  0.1180 ( 43) -0.1173 ( 45)
           0.1842 ( 47)  0.1391 ( 48) -0.1067 ( 49) -0.1770 ( 51) -0.1643 ( 53)
          -0.1035 ( 56) -0.2484 ( 57)  0.1617 ( 61)  0.2668 ( 63) -0.2087 ( 66)
           0.2371 ( 69)
 CRD 37=   0.2304 (  2) -0.2093 (  5)  0.1115 (  6) -0.1655 (  8) -0.1012 ( 10)
           0.1869 ( 11) -0.1928 ( 13)  0.2071 ( 14) -0.1436 ( 18)  0.1423 ( 19)
          -0.1190 ( 25)  0.1079 ( 26) -0.1370 ( 28)  0.1511 ( 30)  0.1217 ( 31)
          -0.1106 ( 35)  0.1124 ( 36) -0.1482 ( 38)  0.1531 ( 39) -0.1515 ( 42)
           0.2087 ( 45) -0.1706 ( 46)  0.1937 ( 48) -0.1920 ( 50) -0.2689 ( 52)
          -0.1061 ( 56)  0.1190 ( 57) -0.2762 ( 58) -0.1197 ( 60)  0.1212 ( 65)
           0.1925 ( 66)  0.1311 ( 68)  0.1573 ( 69)
 CRD 38=  -0.6175 ( 15)  0.3137 ( 25) -0.2846 ( 26) -0.2741 ( 28)  0.3024 ( 30)
          -0.1204 ( 42) -0.1213 ( 44) -0.1503 ( 45)  0.1134 ( 47) -0.1556 ( 48)
          -0.1295 ( 56) -0.1221 ( 57) -0.1322 ( 60) -0.1174 ( 63)
 CRD 39=   0.5775 ( 40)  0.5772 ( 41)  0.5774 ( 42)

 THE DETERMINANT OF THE G MATRIX IS 10**(   -13)


                     --------------------
                     INTERNAL COORDINATES
                     --------------------

                 - - ATOMS - -         COORDINATE      COORDINATE
 NO.   TYPE    I  J  K  L  M  N        (BOHR,RAD)       (ANG,DEG)
 ----------------------------------------------------------------
   1 STRETCH   1  3                     4.1573972       2.2000000
   2 STRETCH   2  4                     3.3538460       1.7747790
   3 STRETCH   2  3                     3.3196218       1.7566683
   4 STRETCH   2  6                     3.3539733       1.7748464
   5 STRETCH   2  5                     3.3538992       1.7748072
   6 STRETCH   4  8                     2.0679643       1.0943196
   7 STRETCH   4  7                     2.0574453       1.0887532
   8 STRETCH   4  9                     2.0572881       1.0886701
   9 STRETCH   5 12                     2.0573449       1.0887001
  10 STRETCH   5 11                     2.0679960       1.0943364
  11 STRETCH   5 10                     2.0573635       1.0887099
  12 STRETCH   6 15                     2.0678311       1.0942492
  13 STRETCH   6 14                     2.0574193       1.0887395
  14 STRETCH   6 13                     2.0574658       1.0887641
  15 BEND      1  3  2                  3.1407285     179.9504864
  16 BEND      2  5 11                  1.8647629     106.8430437
  17 BEND      2  4  8                  1.8654887     106.8846315
  18 BEND      2  6 13                  1.9363405     110.9441357
  19 BEND      2  6 14                  1.9367673     110.9685932
  20 BEND      2  4  9                  1.9363663     110.9456164
  21 BEND      2  5 12                  1.9367468     110.9674169
  22 BEND      2  5 10                  1.9366586     110.9623649
  23 BEND      2  4  7                  1.9362777     110.9405404
  24 BEND      2  6 15                  1.8648449     106.8477426
  25 BEND      3  2  4                  1.8625915     106.7186329
  26 BEND      3  2  5                  1.8629232     106.7376352
  27 BEND      3  2  6                  1.8629692     106.7402727
  28 BEND      4  2  6                  1.9560829     112.0752918
  29 BEND      4  2  5                  1.9558860     112.0640120
  30 BEND      5  2  6                  1.9557846     112.0582053
  31 BEND      7  4  9                  1.9373963     111.0046285
  32 BEND      7  4  8                  1.8926647     108.4417006
  33 BEND      8  4  9                  1.8931684     108.4705596
  34 BEND     10  5 11                  1.8926604     108.4414529
  35 BEND     10  5 12                  1.9375674     111.0144323
  36 BEND     11  5 12                  1.8929064     108.4555452
  37 BEND     13  6 14                  1.9376724     111.0204481
  38 BEND     13  6 15                  1.8928290     108.4511126
  39 BEND     14  6 15                  1.8928573     108.4527372
  40 TORSION   1  3  2  5               0.6078242      34.8257609
  41 TORSION   1  3  2  4               2.7021086     154.8194185
  42 TORSION   1  3  2  6              -1.4865386     -85.1723901
  43 TORSION   3  2  4  8              -3.1397635    -179.8951976
  44 TORSION   3  2  6 15               3.1406228     179.9444323
  45 TORSION   3  2  6 14              -1.0822197     -62.0066193
  46 TORSION   3  2  4  7              -1.0795371     -61.8529181
  47 TORSION   3  2  5 10              -1.0836507     -62.0886112
  48 TORSION   3  2  6 13               1.0805476      61.9108182
  49 TORSION   3  2  5 11               3.1395369     179.8822159
  50 TORSION   3  2  5 12               1.0791952      61.8333328
  51 TORSION   3  2  4  9               1.0825410      62.0250294
  52 TORSION   4  2  6 15              -1.1093065     -63.5585802
  53 TORSION   4  2  6 14               0.9510363      54.4903681
  54 TORSION   4  2  5 10              -3.1167730    -178.5779384
  55 TORSION   4  2  6 13               3.1138036     178.4078057
  56 TORSION   4  2  5 12              -0.9539271     -54.6559945
  57 TORSION   4  2  5 11               1.1064146      63.3928887
  58 TORSION   5  2  6 15               1.1071274      63.4337280
  59 TORSION   5  2  6 14              -3.1157151    -178.5173236
  60 TORSION   5  2  4  7               0.9537852      54.6478664
  61 TORSION   5  2  6 13              -0.9529478     -54.5998861
  62 TORSION   5  2  4  9               3.1158633     178.5258139
  63 TORSION   5  2  4  8              -1.1064412     -63.3944130
  64 TORSION   6  2  4  7              -3.1130207    -178.3629494
  65 TORSION   6  2  5 10               0.9498725      54.4236833
  66 TORSION   6  2  5 11              -1.1101252     -63.6054896
  67 TORSION   6  2  5 12               3.1127184     178.3456273
  68 TORSION   6  2  4  9              -0.9509427     -54.4850018
  69 TORSION   6  2  4  8               1.1099381      63.5947712

     ------------------------------------------
     THE POINT GROUP IS C1 , NAXIS= 0, ORDER= 1
     ------------------------------------------

 -- VARIATIONAL SPACE WILL BE RESTRICTED TO PURE SPHERICAL HARMONICS ONLY --
 AFTER EXCLUDING CONTAMINANT COMBINATIONS FROM THE CARTESIAN GAUSSIAN BASIS
 SET, THE NUMBER OF SPHERICAL HARMONICS KEPT IN THE VARIATION SPACE IS  316

     DIMENSIONS OF THE SYMMETRY SUBSPACES ARE
 A   =  316

 ..... DONE SETTING UP THE RUN .....
 CPU     0: STEP CPU TIME=     0.08 TOTAL CPU TIME=        0.1 (    0.0 MIN)
 TOTAL WALL CLOCK TIME=        0.1 SECONDS, CPU UTILIZATION IS  53.33%


          -----------------------------
          STATIONARY POINT LOCATION RUN
          -----------------------------


           ** GEOMETRY CONSTRAINTS ARE BEING APPLIED. **

          TRANSFORMING DISPLACEMENT FROM INTERNALS TO CARTESIANS
          THE ROOT MEAN SQUARE ERROR IN ITERATION   1 IS   0.00000000
 WARNING! THE RADIUS IN CARTESIANS IS    0.00000
 OBTAINING INITIAL HESSIAN, HESS=GUESS   
 DIAGONAL GUESS HESSIAN IN INTERNAL COORDS IS
     1  0.4820     2  0.4333     3  0.3624     4  0.4333     5  0.4333
     6  0.3435     7  0.3472     8  0.3473     9  0.3472    10  0.3435
    11  0.3472    12  0.3435    13  0.3472    14  0.3472    15  0.3026
    16  0.2409    17  0.2409    18  0.2412    19  0.2412    20  0.2412
    21  0.2412    22  0.2412    23  0.2412    24  0.2409    25  0.2785
    26  0.2785    27  0.2785    28  0.2914    29  0.2914    30  0.2914
    31  0.2035    32  0.2032    33  0.2033    34  0.2032    35  0.2035
    36  0.2032    37  0.2035    38  0.2032    39  0.2033    40  0.2500
    41  0.2500    42  0.2500    43  0.2500    44  0.2500    45  0.2500
    46  0.2500    47  0.2500    48  0.2500    49  0.2500    50  0.2500
    51  0.2500    52  0.2500    53  0.2500    54  0.2500    55  0.2500
    56  0.2500    57  0.2500    58  0.2500    59  0.2500    60  0.2500
    61  0.2500    62  0.2500    63  0.2500    64  0.2500    65  0.2500
    66  0.2500    67  0.2500    68  0.2500    69  0.2500
 TRANSFORMING HESSIAN TO SYMMETRY COORDINATES

          PARAMETERS CONTROLLING GEOMETRY SEARCH ARE
          METHOD =QA                  UPHESS =BFGS    
          NNEG   =         0          NFRZ   =         0
          NSTEP  =        50          IFOLOW =         1
          HESS   =GUESS               RESTAR =         F
          IHREP  =         0          HSSEND =         F
          NPRT   =         0          NPUN   =         0
          OPTTOL = 1.000E-04          RMIN   = 1.500E-03
          RMAX   = 1.000E-01          RLIM   = 7.000E-02
          DXMAX  = 3.000E-01          PURIFY =         F
          MOVIE  =         F          TRUPD  =         T
          TRMAX  = 5.000E-01          TRMIN  = 5.000E-02
          ITBMAT =         5          STPT   =         F
          STSTEP = 1.000E-02          PROJCT=          T

 BEGINNING GEOMETRY SEARCH POINT NSERCH=   0 ...

 COORDINATES OF ALL ATOMS ARE (ANGS)
   ATOM   CHARGE       X              Y              Z
 ------------------------------------------------------------
 LA         57.0  -0.1739353441   1.1341682690  -4.0490164368
 P          15.0  -0.0366032423   0.2688646663  -0.1905697229
 O           8.0  -0.0984157653   0.6531055862  -1.9035851309
 C           6.0  -1.4860951384   0.9813204301   0.5451071525
 C           6.0   1.4559237135   0.9916092996   0.4418414647
 C           6.0  -0.0256732629  -1.5014153816  -0.0638069697
 H           1.0  -1.4878438052   2.0641535011   0.4317357545
 H           1.0  -1.4493625421   0.7451176525   1.6129996764
 H           1.0  -2.3904897272   0.5436152961   0.1259566375
 H           1.0   2.3319922021   0.5596421974  -0.0389888171
 H           1.0   1.4951095128   0.7550474285   1.5095844886
 H           1.0   1.4426865723   2.0743629744   0.3289824620
 H           1.0   0.8565172368  -1.9206067268  -0.5448742752
 H           1.0  -0.9370547646  -1.9274618696  -0.4800061744
 H           1.0   0.0138369258  -1.7427622061   1.0027631842


                     --------------------
                     INTERNAL COORDINATES
                     --------------------

                 - - ATOMS - -         COORDINATE      COORDINATE
 NO.   TYPE    I  J  K  L  M  N        (BOHR,RAD)       (ANG,DEG)
 ----------------------------------------------------------------
   1 STRETCH   1  3                     4.1573972       2.2000000
   2 STRETCH   2  4                     3.3538460       1.7747790
   3 STRETCH   2  3                     3.3196218       1.7566683
   4 STRETCH   2  6                     3.3539733       1.7748464
   5 STRETCH   2  5                     3.3538992       1.7748072
   6 STRETCH   4  8                     2.0679643       1.0943196
   7 STRETCH   4  7                     2.0574453       1.0887532
   8 STRETCH   4  9                     2.0572881       1.0886701
   9 STRETCH   5 12                     2.0573449       1.0887001
  10 STRETCH   5 11                     2.0679960       1.0943364
  11 STRETCH   5 10                     2.0573635       1.0887099
  12 STRETCH   6 15                     2.0678311       1.0942492
  13 STRETCH   6 14                     2.0574193       1.0887395
  14 STRETCH   6 13                     2.0574658       1.0887641
  15 BEND      1  3  2                  3.1407285     179.9504864
  16 BEND      2  5 11                  1.8647629     106.8430437
  17 BEND      2  4  8                  1.8654887     106.8846315
  18 BEND      2  6 13                  1.9363405     110.9441357
  19 BEND      2  6 14                  1.9367673     110.9685932
  20 BEND      2  4  9                  1.9363663     110.9456164
  21 BEND      2  5 12                  1.9367468     110.9674169
  22 BEND      2  5 10                  1.9366586     110.9623649
  23 BEND      2  4  7                  1.9362777     110.9405404
  24 BEND      2  6 15                  1.8648449     106.8477426
  25 BEND      3  2  4                  1.8625915     106.7186329
  26 BEND      3  2  5                  1.8629232     106.7376352
  27 BEND      3  2  6                  1.8629692     106.7402727
  28 BEND      4  2  6                  1.9560829     112.0752918
  29 BEND      4  2  5                  1.9558860     112.0640120
  30 BEND      5  2  6                  1.9557846     112.0582053
  31 BEND      7  4  9                  1.9373963     111.0046285
  32 BEND      7  4  8                  1.8926647     108.4417006
  33 BEND      8  4  9                  1.8931684     108.4705596
  34 BEND     10  5 11                  1.8926604     108.4414529
  35 BEND     10  5 12                  1.9375674     111.0144323
  36 BEND     11  5 12                  1.8929064     108.4555452
  37 BEND     13  6 14                  1.9376724     111.0204481
  38 BEND     13  6 15                  1.8928290     108.4511126
  39 BEND     14  6 15                  1.8928573     108.4527372
  40 TORSION   1  3  2  5               0.6078242      34.8257609
  41 TORSION   1  3  2  4               2.7021086     154.8194185
  42 TORSION   1  3  2  6              -1.4865386     -85.1723901
  43 TORSION   3  2  4  8              -3.1397635    -179.8951976
  44 TORSION   3  2  6 15               3.1406228     179.9444323
  45 TORSION   3  2  6 14              -1.0822197     -62.0066193
  46 TORSION   3  2  4  7              -1.0795371     -61.8529181
  47 TORSION   3  2  5 10              -1.0836507     -62.0886112
  48 TORSION   3  2  6 13               1.0805476      61.9108182
  49 TORSION   3  2  5 11               3.1395369     179.8822159
  50 TORSION   3  2  5 12               1.0791952      61.8333328
  51 TORSION   3  2  4  9               1.0825410      62.0250294
  52 TORSION   4  2  6 15              -1.1093065     -63.5585802
  53 TORSION   4  2  6 14               0.9510363      54.4903681
  54 TORSION   4  2  5 10              -3.1167730    -178.5779384
  55 TORSION   4  2  6 13               3.1138036     178.4078057
  56 TORSION   4  2  5 12              -0.9539271     -54.6559945
  57 TORSION   4  2  5 11               1.1064146      63.3928887
  58 TORSION   5  2  6 15               1.1071274      63.4337280
  59 TORSION   5  2  6 14              -3.1157151    -178.5173236
  60 TORSION   5  2  4  7               0.9537852      54.6478664
  61 TORSION   5  2  6 13              -0.9529478     -54.5998861
  62 TORSION   5  2  4  9               3.1158633     178.5258139
  63 TORSION   5  2  4  8              -1.1064412     -63.3944130
  64 TORSION   6  2  4  7              -3.1130207    -178.3629494
  65 TORSION   6  2  5 10               0.9498725      54.4236833
  66 TORSION   6  2  5 11              -1.1101252     -63.6054896
  67 TORSION   6  2  5 12               3.1127184     178.3456273
  68 TORSION   6  2  4  9              -0.9509427     -54.4850018
  69 TORSION   6  2  4  8               1.1099381      63.5947712

          ********************
          1 ELECTRON INTEGRALS
          ********************
 TIME TO DO ORDINARY INTEGRALS=      0.02
 TIME TO DO      ECP INTEGRALS=      0.07
 ...... END OF ONE-ELECTRON INTEGRALS ......
 CPU     0: STEP CPU TIME=     0.09 TOTAL CPU TIME=        0.2 (    0.0 MIN)
 TOTAL WALL CLOCK TIME=        0.3 SECONDS, CPU UTILIZATION IS  60.71%

          -------------
          GUESS OPTIONS
          -------------
          GUESS =HUCKEL            NORB  =       0          NORDER=       0
          MIX   =       F          PRTMO =       F          PUNMO =       F
          TOLZ  = 1.0E-08          TOLE  = 1.0E-05
          SYMDEN=       F          PURIFY=       F

 INITIAL GUESS ORBITALS GENERATED BY HUCKEL   ROUTINE.
 HUCKEL GUESS REQUIRES    916545 WORDS.

 STATISTICS FOR GENERATION OF SYMMETRY ORBITAL -Q- MATRIX
 NUMBER OF CARTESIAN ATOMIC ORBITALS=        354
 NUMBER OF SPHERICAL CONTAMINANTS DROPPED=    38
 NUMBER OF LINEARLY DEPENDENT MOS DROPPED=     0
 TOTAL NUMBER OF MOS IN VARIATION SPACE=     316

 SYMMETRIES FOR INITIAL GUESS ORBITALS FOLLOW.   BOTH SET(S).
    29 ORBITALS ARE OCCUPIED (   13 CORE ORBITALS).
    14=A       15=A       16=A       17=A       18=A       19=A       20=A   
    21=A       22=A       23=A       24=A       25=A       26=A       27=A   
    28=A       29=A       30=A       31=A       32=A       33=A       34=A   
    35=A       36=A       37=A       38=A       39=A   
 ...... END OF INITIAL ORBITAL SELECTION ......
 CPU     0: STEP CPU TIME=     0.19 TOTAL CPU TIME=        0.4 (    0.0 MIN)
 TOTAL WALL CLOCK TIME=        0.8 SECONDS, CPU UTILIZATION IS  48.00%

                    ----------------------
                    AO INTEGRAL TECHNOLOGY
                    ----------------------
     S,P,L SHELL ROTATED AXIS INTEGRALS, REPROGRAMMED BY
        KAZUYA ISHIMURA (IMS) AND JOSE SIERRA (SYNSTAR).
     S,P,D,L SHELL ROTATED AXIS INTEGRALS PROGRAMMED BY
        KAZUYA ISHIMURA (INSTITUTE FOR MOLECULAR SCIENCE).
     S,P,D,F,G SHELL TO TOTAL QUARTET ANGULAR MOMENTUM SUM 5,
        ERIC PROGRAM BY GRAHAM FLETCHER (ELORET AND NASA ADVANCED
        SUPERCOMPUTING DIVISION, AMES RESEARCH CENTER).
     S,P,D,F,G,L SHELL GENERAL RYS QUADRATURE PROGRAMMED BY
        MICHEL DUPUIS (PACIFIC NORTHWEST NATIONAL LABORATORY).

          --------------------
          2 ELECTRON INTEGRALS
          --------------------

 DIRECT SCF METHOD SKIPS INTEGRAL STORAGE ON DISK.
 DIRECT TRANSFORMATION SKIPS AO INTEGRAL STORAGE ON DISK.
  ...... END OF TWO-ELECTRON INTEGRALS .....
 CPU     0: STEP CPU TIME=     0.01 TOTAL CPU TIME=        0.4 (    0.0 MIN)
 TOTAL WALL CLOCK TIME=        0.8 SECONDS, CPU UTILIZATION IS  48.68%

          --------------------------
                 RHF SCF CALCULATION
          --------------------------

     NUCLEAR ENERGY =       330.0070750271
     MAXIT =  200     NPUNCH=    2
     EXTRAP=T  DAMP=F  SHIFT=F  RSTRCT=F  DIIS=F  DEM=F  SOSCF=T
     DENSITY MATRIX CONV=  2.00E-06
     SOSCF WILL OPTIMIZE    8323 ORBITAL ROTATIONS, SOGTOL=   0.250
     MEMORY REQUIRED FOR RHF ITERS=    982670 WORDS.

 DIRECT SCF CALCULATION, SCHWRZ=T   FDIFF=F,  DIRTHR=  0.00E+00 NITDIR=10
 SCHWARZ INEQUALITY OVERHEAD:     62118 INTEGRALS, T=        0.01

                                                                                   NONZERO     BLOCKS
 ITER EX DEM     TOTAL ENERGY        E CHANGE  DENSITY CHANGE     ORB. GRAD      INTEGRALS    SKIPPED
   1  0  0     -563.4241268390  -563.4241268390   0.369106718   0.000000000     1446063775    4278120
          ---------------START SECOND ORDER SCF---------------
   2  1  0     -564.5364365646    -1.1123097256   0.142485338   0.081913225     1432419096    4594367
   3  2  0     -564.6401921747    -0.1037556101   0.059374714   0.056058311     1431321740    4610806
   4  3  0     -564.7133873520    -0.0731951774   0.020703375   0.008786688     1431702266    4598046
   5  4  0     -564.7155605725    -0.0021732204   0.006176935   0.006433322     1432353485    4589887
   6  5  0     -564.7161692408    -0.0006086683   0.002574434   0.001116973     1432423465    4588374
   7  6  0     -564.7162133692    -0.0000441284   0.000861841   0.000246260     1432462826    4587819
   8  7  0     -564.7162176725    -0.0000043033   0.000266563   0.000072734     1432482103    4587763
   9  8  0     -564.7162180528    -0.0000003803   0.000091295   0.000023501     1432485466    4587808
  10  9  0     -564.7162180882    -0.0000000354   0.000033427   0.000012595     1432484150    4587850
  11 10  0     -564.7162180921    -0.0000000039   0.000012137   0.000004797     1432484159    4587849
  12 11  0     -564.7162180926    -0.0000000005   0.000005194   0.000001644     1432483470    4587847
  13 12  0     -564.7162180927    -0.0000000001   0.000001274   0.000000410     1432483332    4587844
  14 13  0     -564.7162180927    -0.0000000000   0.000000667   0.000000189     1432483344    4587843

          -----------------
          DENSITY CONVERGED
          -----------------
     TIME TO FORM FOCK OPERATORS=      90.1 SECONDS (       6.4 SEC/ITER)
     FOCK TIME ON FIRST ITERATION=       6.6, LAST ITERATION=       6.4
     TIME TO SOLVE SCF EQUATIONS=       0.5 SECONDS (       0.0 SEC/ITER)

 FINAL RHF ENERGY IS     -564.7162180927 AFTER  14 ITERATIONS

          ------------
          EIGENVECTORS
          ------------

                      1          2          3          4          5
                  -80.4655   -21.0257   -11.6256   -11.6256   -11.6256
                     A          A          A          A          A   
    1  LA 1  S    0.000004  -0.000017   0.000001   0.000005   0.000006
    2  LA 1  X    0.000000  -0.000000  -0.000007  -0.000007   0.000007
    3  LA 1  Y   -0.000001   0.000001  -0.000010   0.000004  -0.000005
    4  LA 1  Z    0.000006  -0.000005  -0.000001   0.000007   0.000006
    5  LA 1 XX    0.000004  -0.000008   0.000006  -0.000004   0.000001
    6  LA 1 YY    0.000003  -0.000007  -0.000008   0.000004  -0.000004
    7  LA 1 ZZ   -0.000007   0.000016   0.000002  -0.000000   0.000003
    8  LA 1 XY    0.000000  -0.000000   0.000004   0.000004  -0.000004
    9  LA 1 XZ   -0.000000   0.000001   0.000005   0.000006  -0.000005
   10  LA 1 YZ    0.000003  -0.000006   0.000004  -0.000003   0.000001
   11  LA 1 XX    0.000001   0.000065  -0.000010   0.000032   0.000026
   12  LA 1 YY    0.000001   0.000056   0.000017   0.000012   0.000032
   13  LA 1 ZZ   -0.000002  -0.000121  -0.000007  -0.000044  -0.000058
   14  LA 1 XY    0.000000   0.000002  -0.000009  -0.000009   0.000009
   15  LA 1 XZ   -0.000000  -0.000008  -0.000007  -0.000011   0.000004
   16  LA 1 YZ    0.000001   0.000048  -0.000001   0.000021   0.000021
   17  LA 1  S   -0.000011  -0.000118  -0.000015  -0.000129  -0.000159
   18  LA 1  X    0.000000  -0.000003  -0.000013  -0.000015   0.000011
   19  LA 1  Y   -0.000000   0.000021  -0.000017   0.000020   0.000005
   20  LA 1  Z    0.000002  -0.000094  -0.000009  -0.000040  -0.000055
   21  LA 1  S    0.000005   0.000058   0.000023   0.000197   0.000242
   22  LA 1  X   -0.000000   0.000002   0.000032   0.000039  -0.000023
   23  LA 1  Y    0.000000  -0.000011   0.000039  -0.000062  -0.000029
   24  LA 1  Z   -0.000000   0.000050   0.000028   0.000156   0.000205
   25  LA 1  S   -0.000015   0.000000  -0.000002  -0.000015  -0.000019
   26  LA 1  X   -0.000001  -0.000002   0.000012   0.000012  -0.000013
   27  LA 1  Y    0.000005   0.000015   0.000018  -0.000003   0.000015
   28  LA 1  Z   -0.000023  -0.000067  -0.000000  -0.000034  -0.000037
   29  LA 1 XX   -0.000001  -0.000016   0.000008  -0.000053  -0.000056
   30  LA 1 YY   -0.000001  -0.000014  -0.000030  -0.000027  -0.000060
   31  LA 1 ZZ    0.000002   0.000030   0.000022   0.000080   0.000116
   32  LA 1 XY   -0.000000  -0.000000   0.000005   0.000002  -0.000005
   33  LA 1 XZ    0.000000   0.000002   0.000027   0.000034  -0.000018
   34  LA 1 YZ   -0.000001  -0.000012   0.000025  -0.000053  -0.000032
   35  P  2  S    1.000137   0.000073   0.000011   0.000091   0.000111
   36  P  2  S    0.000167   0.000453   0.000076   0.000643   0.000791
   37  P  2  S    0.000183   0.000594   0.000118   0.000994   0.001222
   38  P  2  S   -0.000940  -0.000183  -0.000039  -0.000327  -0.000402
   39  P  2  S   -0.000360  -0.002400   0.000023   0.000182   0.000223
   40  P  2  X   -0.000003  -0.000004   0.000344   0.000372  -0.000325
   41  P  2  Y    0.000018   0.000024   0.000480  -0.000314   0.000141
   42  P  2  Z   -0.000081  -0.000106   0.000114   0.000072   0.000235
   43  P  2  X   -0.000003  -0.000011   0.000901   0.000974  -0.000852
   44  P  2  Y    0.000016   0.000066   0.001256  -0.000819   0.000373
   45  P  2  Z   -0.000072  -0.000296   0.000296   0.000174   0.000596
   46  P  2  X    0.000001   0.000004  -0.000043  -0.000046   0.000040
   47  P  2  Y   -0.000009  -0.000027  -0.000059   0.000041  -0.000014
   48  P  2  Z    0.000042   0.000122  -0.000015  -0.000020  -0.000042
   49  P  2  X   -0.000003   0.000048  -0.000023  -0.000013   0.000035
   50  P  2  Y    0.000019  -0.000304  -0.000039  -0.000045  -0.000090
   51  P  2  Z   -0.000084   0.001346   0.000029   0.000293   0.000350
   52  P  2 XX   -0.000004  -0.000064   0.000207  -0.000072   0.000114
   53  P  2 YY   -0.000003  -0.000055  -0.000224   0.000166  -0.000048
   54  P  2 ZZ    0.000007   0.000119   0.000017  -0.000094  -0.000066
   55  P  2 XY   -0.000000  -0.000002   0.000140   0.000146  -0.000130
   56  P  2 XZ    0.000000   0.000008   0.000102   0.000117  -0.000114
   57  P  2 YZ   -0.000003  -0.000047   0.000051  -0.000008   0.000058
   58  P  2 XX   -0.000026  -0.000047   0.000315   0.000038   0.000305
   59  P  2 YY   -0.000023  -0.000040  -0.000394   0.000397   0.000031
   60  P  2 ZZ    0.000049   0.000087   0.000080  -0.000435  -0.000336
   61  P  2 XY   -0.000001  -0.000001   0.000165   0.000160  -0.000137
   62  P  2 XZ    0.000003   0.000006   0.000316   0.000334  -0.000345
   63  P  2 YZ   -0.000020  -0.000035   0.000318  -0.000051   0.000283
   64  P  2 XXX   0.000001   0.000010   0.000027   0.000030  -0.000019
   65  P  2 YYY  -0.000006   0.000027   0.000027  -0.000086  -0.000068
   66  P  2 ZZZ  -0.000013  -0.000190  -0.000036  -0.000039  -0.000089
   67  P  2 XXY  -0.000001  -0.000165   0.000020   0.000047   0.000068
   68  P  2 XXZ   0.000010   0.000116   0.000022   0.000044   0.000084
   69  P  2 YYX   0.000000   0.000004   0.000005   0.000005  -0.000002
   70  P  2 YYZ   0.000007   0.000140   0.000026   0.000008   0.000035
   71  P  2 ZZX  -0.000001  -0.000018  -0.000041  -0.000046   0.000027
   72  P  2 ZZY   0.000008   0.000129  -0.000056   0.000068   0.000023
   73  P  2 XYZ   0.000000   0.000012   0.000022   0.000028  -0.000026
   74  P  2 XX    0.000001   0.000022  -0.000005   0.000004  -0.000001
   75  P  2 YY    0.000001   0.000019   0.000006  -0.000003   0.000003
   76  P  2 ZZ   -0.000002  -0.000041  -0.000000  -0.000001  -0.000002
   77  P  2 XY    0.000000   0.000001  -0.000004  -0.000004   0.000004
   78  P  2 XZ   -0.000000  -0.000003  -0.000002  -0.000002   0.000002
   79  P  2 YZ    0.000001   0.000016  -0.000000   0.000001   0.000001
   80  O  3  S    0.000000   0.975714   0.000003   0.000028   0.000035
   81  O  3  S    0.000001  -0.001100   0.000005   0.000041   0.000051
   82  O  3  S    0.000005   0.043235  -0.000001  -0.000012  -0.000015
   83  O  3  S   -0.000072   0.004774   0.000019   0.000150   0.000184
   84  O  3  X    0.000000   0.000020  -0.000005  -0.000006   0.000004
   85  O  3  Y   -0.000000  -0.000119  -0.000007   0.000007   0.000001
   86  O  3  Z    0.000001   0.000532  -0.000003  -0.000012  -0.000017
   87  O  3  X   -0.000001  -0.000020   0.000014   0.000017  -0.000012
   88  O  3  Y    0.000003   0.000125   0.000019  -0.000021  -0.000004
   89  O  3  Z   -0.000015  -0.000558   0.000009   0.000039   0.000054
   90  O  3  X   -0.000003   0.000026  -0.000053  -0.000058   0.000049
[...]
            143  C  4 XXY     0.00127     0.07605
            144  C  4 XXZ     0.00083     0.07716
            145  C  4 YYX     0.00084     0.06919
            146  C  4 YYZ     0.00137     0.06650
            147  C  4 ZZX     0.00000     0.06961
            148  C  4 ZZY     0.00000     0.06667
            149  C  4 XYZ     0.00000     0.00297
            150  C  5  S      1.95557     1.55553
            151  C  5  S      0.82779     0.43091
            152  C  5  S      0.16165     0.27780
            153  C  5  S      0.32741     0.14825
            154  C  5  X      0.27239     0.21107
            155  C  5  Y      0.29409     0.22602
            156  C  5  Z      0.29370     0.22588
            157  C  5  X      0.51482     0.26575
            158  C  5  Y      0.53817     0.27927
            159  C  5  Z      0.53911     0.28035
            160  C  5  X      0.13647     0.18371
            161  C  5  Y      0.19035     0.20295
            162  C  5  Z      0.23290     0.20973
            163  C  5 XX      0.00522     0.08564
            164  C  5 YY      0.00525     0.08682
            165  C  5 ZZ      0.00424     0.08562
            166  C  5 XY      0.00419     0.00467
            167  C  5 XZ      0.00336     0.00454
            168  C  5 YZ      0.00000     0.00376
            169  C  5 XX      0.00888     0.09193
            170  C  5 YY      0.01278     0.09052
            171  C  5 ZZ      0.01151     0.08534
            172  C  5 XY      0.01048     0.02653
            173  C  5 XZ      0.00819     0.02482
            174  C  5 YZ      0.00000     0.01534
            175  C  5 XXX     0.00092     0.15944
            176  C  5 YYY     0.00073     0.17159
            177  C  5 ZZZ     0.00082     0.16842
            178  C  5 XXY     0.00126     0.07629
            179  C  5 XXZ     0.00087     0.07831
            180  C  5 YYX     0.00079     0.06905
            181  C  5 YYZ     0.00138     0.06679
            182  C  5 ZZX     0.00000     0.06998
            183  C  5 ZZY     0.00000     0.06653
            184  C  5 XYZ     0.00000     0.00290
            185  C  6  S      1.95557     1.55590
            186  C  6  S      0.82779     0.43292
            187  C  6  S      0.16165     0.27886
            188  C  6  S      0.32742     0.14911
            189  C  6  X      0.30073     0.22844
            190  C  6  Y      0.26060     0.20730
            191  C  6  Z      0.29887     0.22908
            192  C  6  X      0.54407     0.27947
            193  C  6  Y      0.50153     0.26652
            194  C  6  Z      0.54649     0.28032
            195  C  6  X      0.20212     0.20642
            196  C  6  Y      0.10946     0.17176
            197  C  6  Z      0.24814     0.21265
            198  C  6 XX      0.00567     0.08700
            199  C  6 YY      0.00602     0.09050
            200  C  6 ZZ      0.00356     0.08668
            201  C  6 XY      0.00431     0.00322
            202  C  6 XZ      0.00270     0.00455
            203  C  6 YZ      0.00000     0.00257
            204  C  6 XX      0.01081     0.08869
            205  C  6 YY      0.01480     0.10358
            206  C  6 ZZ      0.01025     0.08700
            207  C  6 XY      0.00867     0.02249
            208  C  6 XZ      0.00730     0.01981
            209  C  6 YZ      0.00000     0.01302
            210  C  6 XXX     0.00089     0.16281
            211  C  6 YYY     0.00096     0.16923
            212  C  6 ZZZ     0.00061     0.16662
            213  C  6 XXY     0.00141     0.07086
            214  C  6 XXZ     0.00094     0.07564
            215  C  6 YYX     0.00050     0.07871
            216  C  6 YYZ     0.00147     0.07305
            217  C  6 ZZX     0.00000     0.07395
            218  C  6 ZZY     0.00000     0.06412
            219  C  6 XYZ     0.00000     0.00267
            220  H  7  S      0.25325     0.19532
            221  H  7  S      0.45275     0.24508
            222  H  7  S      0.06315     0.11978
            223  H  7  X      0.00159     0.00206
            224  H  7  Y      0.00744     0.01098
            225  H  7  Z      0.00172     0.00219
            226  H  7  X      0.01051     0.02862
            227  H  7  Y      0.00480     0.04772
            228  H  7  Z      0.00874     0.02995
            229  H  7 XX      0.00031     0.06930
            230  H  7 YY      0.00064     0.11686
            231  H  7 ZZ      0.00101     0.06988
            232  H  7 XY      0.00009     0.00485
            233  H  7 XZ      0.00084     0.00015
            234  H  7 YZ      0.00000     0.00514
            235  H  8  S      0.24794     0.19071
            236  H  8  S      0.44784     0.24011
            237  H  8  S      0.04717     0.11470
            238  H  8  X      0.00160     0.00209
            239  H  8  Y      0.00185     0.00257
            240  H  8  Z      0.00732     0.01057
            241  H  8  X      0.00955     0.02884
            242  H  8  Y      0.00777     0.02891
            243  H  8  Z      0.00624     0.04762
            244  H  8 XX      0.00091     0.06805
            245  H  8 YY      0.00012     0.07047
            246  H  8 ZZ      0.00010     0.11240
            247  H  8 XY      0.00094     0.00020
            248  H  8 XZ      0.00079     0.00490
            249  H  8 YZ      0.00000     0.00540
            250  H  9  S      0.25325     0.18765
            251  H  9  S      0.45273     0.24302
            252  H  9  S      0.06309     0.12009
            253  H  9  X      0.00586     0.00774
            254  H  9  Y      0.00248     0.00354
            255  H  9  Z      0.00241     0.00338
            256  H  9  X      0.00978     0.04418
            257  H  9  Y      0.00698     0.03123
            258  H  9  Z      0.00729     0.03222
            259  H  9 XX      0.00046     0.09978
            260  H  9 YY      0.00090     0.07535
            261  H  9 ZZ      0.00063     0.07454
            262  H  9 XY      0.00065     0.00524
            263  H  9 XZ      0.00025     0.00527
            264  H  9 YZ      0.00000     0.00164
            265  H 10  S      0.25325     0.18697
            266  H 10  S      0.45272     0.24279
            267  H 10  S      0.06308     0.12006
            268  H 10  X      0.00562     0.00741
            269  H 10  Y      0.00246     0.00345
            270  H 10  Z      0.00268     0.00375
            271  H 10  X      0.01019     0.04365
            272  H 10  Y      0.00702     0.03113
            273  H 10  Z      0.00684     0.03295
            274  H 10 XX      0.00051     0.09786
            275  H 10 YY      0.00088     0.07472
            276  H 10 ZZ      0.00060     0.07663
            277  H 10 XY      0.00062     0.00496
            278  H 10 XZ      0.00027     0.00535
            279  H 10 YZ      0.00000     0.00191
            280  H 11  S      0.24795     0.19076
            281  H 11  S      0.44784     0.24006
            282  H 11  S      0.04717     0.11467
            283  H 11  X      0.00163     0.00217
            284  H 11  Y      0.00185     0.00256
            285  H 11  Z      0.00729     0.01051
            286  H 11  X      0.00991     0.02896
            287  H 11  Y      0.00778     0.02891
            288  H 11  Z      0.00587     0.04753
            289  H 11 XX      0.00088     0.06825
            290  H 11 YY      0.00013     0.07048
            291  H 11 ZZ      0.00010     0.11225
            292  H 11 XY      0.00095     0.00022
            293  H 11 XZ      0.00079     0.00492
            294  H 11 YZ      0.00000     0.00537
            295  H 12  S      0.25326     0.19532
            296  H 12  S      0.45275     0.24508
            297  H 12  S      0.06316     0.11976
            298  H 12  X      0.00159     0.00205
            299  H 12  Y      0.00744     0.01098
            300  H 12  Z      0.00172     0.00219
            301  H 12  X      0.01061     0.02872
            302  H 12  Y      0.00485     0.04777
            303  H 12  Z      0.00860     0.02984
            304  H 12 XX      0.00031     0.06933
            305  H 12 YY      0.00064     0.11687
            306  H 12 ZZ      0.00101     0.06985
            307  H 12 XY      0.00008     0.00483
            308  H 12 XZ      0.00083     0.00014
            309  H 12 YZ      0.00000     0.00515
            310  H 13  S      0.25326     0.18719
            311  H 13  S      0.45275     0.24229
            312  H 13  S      0.06313     0.11966
            313  H 13  X      0.00539     0.00689
            314  H 13  Y      0.00262     0.00397
            315  H 13  Z      0.00274     0.00388
            316  H 13  X      0.00433     0.04117
            317  H 13  Y      0.01278     0.03358
            318  H 13  Z      0.00695     0.03270
            319  H 13 XX      0.00050     0.09599
            320  H 13 YY      0.00073     0.07628
            321  H 13 ZZ      0.00072     0.07702
            322  H 13 XY      0.00060     0.00489
            323  H 13 XZ      0.00032     0.00522
            324  H 13 YZ      0.00000     0.00211
            325  H 14  S      0.25325     0.18797
            326  H 14  S      0.45274     0.24258
            327  H 14  S      0.06310     0.11968
            328  H 14  X      0.00563     0.00722
            329  H 14  Y      0.00265     0.00407
            330  H 14  Z      0.00247     0.00350
            331  H 14  X      0.00401     0.04192
            332  H 14  Y      0.01278     0.03373
            333  H 14  Z      0.00727     0.03179
            334  H 14 XX      0.00046     0.09803
            335  H 14 YY      0.00076     0.07699
            336  H 14 ZZ      0.00075     0.07484
            337  H 14 XY      0.00062     0.00519
            338  H 14 XZ      0.00029     0.00516
            339  H 14 YZ      0.00000     0.00183
            340  H 15  S      0.24794     0.19097
            341  H 15  S      0.44784     0.24018
            342  H 15  S      0.04718     0.11471
            343  H 15  X      0.00163     0.00209
            344  H 15  Y      0.00199     0.00306
            345  H 15  Z      0.00715     0.01020
            346  H 15  X      0.00793     0.02797
            347  H 15  Y      0.01132     0.03090
            348  H 15  Z      0.00432     0.04719
            349  H 15 XX      0.00085     0.06744
            350  H 15 YY      0.00019     0.07247
            351  H 15 ZZ      0.00011     0.11146
            352  H 15 XY      0.00077     0.00028
            353  H 15 XZ      0.00094     0.00503
            354  H 15 YZ      0.00000     0.00532

          ----- MULLIKEN ATOMIC OVERLAP POPULATIONS -----
          (OFF-DIAGONAL ELEMENTS NEED TO BE MULTIPLIED BY 2)

             1           2           3           4           5

    1    8.5167281
    2   -0.0104365  13.2252331
    3    0.0796349   0.2395074   8.5039100
    4    0.0001185   0.3470059  -0.0182352   5.0137746
    5    0.0001181   0.3470049  -0.0182394  -0.0321978   5.0137717
    6    0.0001176   0.3470059  -0.0182372  -0.0321823  -0.0321849
    7    0.0005740  -0.0167152   0.0009095   0.3647579  -0.0026711
    8    0.0004560  -0.0136165   0.0012466   0.3585205  -0.0002958
    9    0.0005704  -0.0167079   0.0009068   0.3647876   0.0024477
   10    0.0005701  -0.0167088   0.0009066   0.0024476   0.3647857
   11    0.0004559  -0.0136126   0.0012466  -0.0002928   0.3585197
   12    0.0005741  -0.0167149   0.0009103  -0.0026746   0.3647557
   13    0.0005731  -0.0167101   0.0009088   0.0024485  -0.0026792
   14    0.0005714  -0.0167061   0.0009073  -0.0026771   0.0024482
   15    0.0004570  -0.0136313   0.0012463  -0.0002929  -0.0002901

             6           7           8           9          10

    6    5.0137283
    7    0.0024492   0.4873013
    8   -0.0002919  -0.0110609   0.4567444
    9   -0.0026784  -0.0191437  -0.0110656   0.4872015
   10   -0.0026722  -0.0000045   0.0000075  -0.0000745   0.4871754
   11   -0.0002960  -0.0001964  -0.0000514   0.0000076  -0.0110639
   12    0.0024490   0.0007145  -0.0001958  -0.0000046  -0.0191422
   13    0.3647744  -0.0000746   0.0000072  -0.0000041   0.0007189
   14    0.3647806  -0.0000042  -0.0001957   0.0007207  -0.0000039
   15    0.3585264   0.0000074  -0.0000557  -0.0001966  -0.0001980

            11          12          13          14          15

   11    0.4567468
   12   -0.0110637   0.4873241
   13   -0.0001941  -0.0000046   0.4872712
   14    0.0000069  -0.0000746  -0.0191419   0.4872254
   15   -0.0000548   0.0000078  -0.0110634  -0.0110663   0.4567587

          TOTAL MULLIKEN AND LOWDIN ATOMIC POPULATIONS
       ATOM         MULL.POP.    CHARGE          LOW.POP.     CHARGE
    1 LA            8.591083    2.408917         8.767909    2.232091
    2 P            14.354197    0.645803        14.316973    0.683027
    3 O             8.777529   -0.777529         8.390654   -0.390654
    4 C             6.365308   -0.365308         6.030936   -0.030936
    5 C             6.365294   -0.365294         6.032054   -0.032054
    6 C             6.365288   -0.365288         6.045528   -0.045528
    7 H             0.806843    0.193157         0.947884    0.052116
    8 H             0.780153    0.219847         0.927541    0.072459
    9 H             0.806767    0.193233         0.934864    0.065136
   10 H             0.806744    0.193256         0.933570    0.066430
   11 H             0.780158    0.219842         0.927638    0.072362
   12 H             0.806861    0.193139         0.947874    0.052126
   13 H             0.806830    0.193170         0.932820    0.067180
   14 H             0.806791    0.193209         0.934479    0.065521
   15 H             0.780154    0.219846         0.929277    0.070723

          MULLIKEN SPHERICAL HARMONIC POPULATIONS
       ATOM           S       P       D      F      G      H      I    TOTAL
    1 LA            2.01    6.13    0.45   0.00   0.00   0.00   0.00    8.59
    2 P             5.34    8.37    0.57   0.07   0.00   0.00   0.00   14.35
    3 O             3.75    4.99    0.04   0.00   0.00   0.00   0.00    8.78
    4 C             3.27    3.01    0.07   0.01   0.00   0.00   0.00    6.37
    5 C             3.27    3.01    0.07   0.01   0.00   0.00   0.00    6.37
    6 C             3.27    3.01    0.07   0.01   0.00   0.00   0.00    6.37
    7 H             0.77    0.03    0.00   0.00   0.00   0.00   0.00    0.81
    8 H             0.74    0.03    0.00   0.00   0.00   0.00   0.00    0.78
    9 H             0.77    0.03    0.00   0.00   0.00   0.00   0.00    0.81
   10 H             0.77    0.03    0.00   0.00   0.00   0.00   0.00    0.81
   11 H             0.74    0.03    0.00   0.00   0.00   0.00   0.00    0.78
   12 H             0.77    0.03    0.00   0.00   0.00   0.00   0.00    0.81
   13 H             0.77    0.03    0.00   0.00   0.00   0.00   0.00    0.81
   14 H             0.77    0.03    0.00   0.00   0.00   0.00   0.00    0.81
   15 H             0.74    0.03    0.00   0.00   0.00   0.00   0.00    0.78

          -------------------------------
          BOND ORDER AND VALENCE ANALYSIS     BOND ORDER THRESHOLD=0.050
          -------------------------------

                   BOND                       BOND                       BOND
  ATOM PAIR DIST  ORDER      ATOM PAIR DIST  ORDER      ATOM PAIR DIST  ORDER
    1   3  2.200  0.664        2   3  1.690  0.810        2   4  1.773  1.014
    2   5  1.773  1.014        2   6  1.773  1.014        4   7  1.089  0.878
    4   8  1.095  0.859        4   9  1.089  0.878        5  10  1.089  0.878
    5  11  1.095  0.859        5  12  1.089  0.878        6  13  1.089  0.878
    6  14  1.089  0.878        6  15  1.095  0.859

                       TOTAL       BONDED        FREE
      ATOM            VALENCE     VALENCE     VALENCE
    1 LA                0.602       0.732      -0.130
    2 P                 4.595       4.236       0.359
    3 O                 2.104       1.509       0.595
    4 C                 3.934       3.642       0.292
    5 C                 3.934       3.642       0.292
    6 C                 3.934       3.642       0.292
    7 H                 0.978       0.927       0.051
    8 H                 0.968       0.918       0.050
    9 H                 0.978       0.927       0.051
   10 H                 0.978       0.927       0.051
   11 H                 0.968       0.918       0.050
   12 H                 0.978       0.927       0.051
   13 H                 0.978       0.927       0.051
   14 H                 0.978       0.927       0.051
   15 H                 0.968       0.918       0.050

          ---------------------
          ELECTROSTATIC MOMENTS
          ---------------------

 POINT   1           X           Y           Z (BOHR)    CHARGE
                -0.226365    1.498519   -4.776389        3.00 (A.U.)
         DX          DY          DZ         /D/  (DEBYE)
    -0.071554    0.447909   -1.996657    2.047531
 ...... END OF PROPERTY EVALUATION ......
 CPU     0: STEP CPU TIME=     0.21 TOTAL CPU TIME=     1321.0 (   22.0 MIN)
 TOTAL WALL CLOCK TIME=     1341.6 SECONDS, CPU UTILIZATION IS  98.46%
  $VIB   
          IVIB=   0 IATOM=   0 ICOORD=   0 E=     -565.6064140606
 -1.704859119E-06 1.174415557E-06 3.242191795E-07-2.276822676E-06 4.219444503E-06
 -6.163027280E-06 6.268960941E-06 7.573674506E-07 6.178072017E-06 3.782486801E-05
 -2.104244117E-05-1.466445226E-05-3.782187361E-05-2.304577689E-05-1.283431651E-05
 -3.161180411E-07 4.595718627E-05-1.015110166E-05 1.953749699E-05 8.501078966E-07
  3.103973219E-06-2.789580771E-05 2.150577609E-05 8.397831707E-08 8.658987176E-06
 -2.672103108E-05 7.968504912E-06-7.679784938E-06-2.677731524E-05 8.645626557E-06
  2.626878634E-05 2.436188697E-05-9.674194853E-07-2.034652246E-05 9.620341649E-07
  5.444482174E-06 1.349284396E-05 1.500155091E-05 9.973064214E-06-1.551434712E-05
  1.579017662E-05 1.610257852E-05 1.504192258E-06-3.299338205E-05-1.304418192E-05
 -7.155422186E-02 4.479085837E-01-1.996657145E+00
 ......END OF GEOMETRY SEARCH......
 CPU     0: STEP CPU TIME=     0.00 TOTAL CPU TIME=     1321.0 (   22.0 MIN)
 TOTAL WALL CLOCK TIME=     1341.7 SECONDS, CPU UTILIZATION IS  98.46%
               2991967  WORDS OF DYNAMIC MEMORY USED
 EXECUTION OF GAMESS TERMINATED NORMALLY Thu Jun  9 11:25:31 2016
 DDI: 44487344 bytes (42.4 MB / 5 MWords) used by master data server.

 ----------------------------------------
 CPU timing information for all processes
 ========================================
 0: 1318.817 + 2.243 = 1321.61
 1: 1318.992 + 2.106 = 1321.99
 2: 1318.285 + 2.107 = 1320.393
 3: 1319.516 + 2.23 = 1321.540
 4: 1319.884 + 2.84 = 1321.969
 5: 1319.626 + 2.31 = 1321.658
 6: 1320.382 + 2.261 = 1322.643
 7: 1320.229 + 2.77 = 1322.306
 8: 1320.546 + 2.215 = 1322.761
 9: 1320.351 + 2.187 = 1322.538
 10: 1320.645 + 2.103 = 1322.748
 11: 1320.790 + 2.77 = 1322.867
 12: 1320.385 + 2.136 = 1322.521
 13: 1319.702 + 2.44 = 1321.747
 14: 1319.539 + 2.134 = 1321.674
 15: 1319.391 + 1.693 = 1321.85
 16: 0.13 + 0.73 = 0.87
 17: 0.16 + 0.70 = 0.87
 18: 0.17 + 0.68 = 0.86
 19: 0.17 + 0.63 = 0.81
 20: 0.13 + 0.66 = 0.80
 21: 0.12 + 0.63 = 0.76
 22: 0.15 + 0.70 = 0.86
 23: 0.16 + 0.65 = 0.82
 24: 0.20 + 0.57 = 0.78
 25: 0.12 + 0.73 = 0.86
 26: 0.17 + 0.66 = 0.84
 27: 0.15 + 0.65 = 0.81
 28: 0.14 + 0.69 = 0.84
 29: 0.15 + 0.71 = 0.87
 30: 0.17 + 0.69 = 0.87
 31: 0.14 + 0.67 = 0.82
 ----------------------------------------
unset echo
----- accounting info -----
Files used on the master node node217 were:
-rw-r--r-- 1 fzahari quantum     2001 Jun  9 11:03 /local/scratch/fzahari/196592.share/bnd_var-022.F05
-rw-r--r-- 1 fzahari quantum 17178000 Jun  9 11:25 /local/scratch/fzahari/196592.share/bnd_var-022.F10
-rw-r--r-- 1 fzahari quantum        8 Jun  9 11:03 /local/scratch/fzahari/196592.share/bnd_var-022.nodes.mpd
ls: No match.
ls: No match.
ls: No match.
Thu Jun  9 11:25:33 CDT 2016
21117.940u 38.191s 22:25.93 1571.8%	0+0k 104+207992io 0pf+0w
