----- GAMESS execution script 'rungms' -----
This job is running on host node222
under operating system Linux at Wed Jun 8 23:25:58 CDT 2016
PBS has assigned the following compute nodes to this run:
node222
Available scratch disk space (Kbyte units) at beginning of the job is
Filesystem           1K-blocks      Used Available Use% Mounted on
/dev/sda7            2670838024    213284 2534953956   1% /local
GAMESS temporary binary files will be written to /local/scratch/fzahari/196567.share
GAMESS supplementary output files will be written to /work1/quantum/fzahari/scr
Copying input file bnd_var-255.inp to your run's scratch directory...
cp bnd_var-255.inp /local/scratch/fzahari/196567.share/bnd_var-255.F05
unset echo
setenv I_MPI_WAIT_MODE enable
setenv I_MPI_PIN disable
setenv I_MPI_DEBUG 0
setenv I_MPI_STATS 0
setenv I_MPI_FABRICS dapl
setenv I_MPI_DAT_LIBRARY libdat2.so
unset echo
MPI kickoff will run GAMESS on 16 cores in 1 nodes.
The binary to be executed is /home/mschmidt/gamess/gamess.132.x
MPI will run 16 compute processes and 16 data servers,
    placing 16 of each process type onto each node.
The scratch disk space on each node is /local/scratch/fzahari/196567.share, with free space
Filesystem           1K-blocks      Used Available Use% Mounted on
/dev/sda7            2670838024    213308 2534953932   1% /local
setenv I_MPI_HYDRA_ENV all
setenv I_MPI_PERHOST 32
unset echo
mpiexec.hydra -f /local/scratch/fzahari/196567.share/bnd_var-255.processes.mpd -n 32 /home/mschmidt/gamess/gamess.132.x
          ******************************************************
          *         GAMESS VERSION =  5 DEC 2014 (R1)          *
          *             FROM IOWA STATE UNIVERSITY             *
          * M.W.SCHMIDT, K.K.BALDRIDGE, J.A.BOATZ, S.T.ELBERT, *
          *   M.S.GORDON, J.H.JENSEN, S.KOSEKI, N.MATSUNAGA,   *
          *          K.A.NGUYEN, S.J.SU, T.L.WINDUS,           *
          *       TOGETHER WITH M.DUPUIS, J.A.MONTGOMERY       *
          *         J.COMPUT.CHEM.  14, 1347-1363(1993)        *
          **************** 64 BIT INTEL VERSION ****************

  SINCE 1993, STUDENTS AND POSTDOCS WORKING AT IOWA STATE UNIVERSITY
  AND ALSO IN THEIR VARIOUS JOBS AFTER LEAVING ISU HAVE MADE IMPORTANT
  CONTRIBUTIONS TO THE CODE:
     IVANA ADAMOVIC, CHRISTINE AIKENS, YURI ALEXEEV, POOJA ARORA,
     ANDREY ASADCHEV, ROB BELL, PRADIPTA BANDYOPADHYAY, JONATHAN BENTZ,
     BRETT BODE, KURT BRORSEN, CALEB CARLIN, GALINA CHABAN, WEI CHEN,
     CHEOL HO CHOI, PAUL DAY, ALBERT DEFUSCO, NUWAN DESILVA, TIM DUDLEY,
     DMITRI FEDOROV, GRAHAM FLETCHER, MARK FREITAG, KURT GLAESEMANN,
     DAN KEMP, GRANT MERRILL, NORIYUKI MINEZAWA, JONATHAN MULLIN,
     TAKESHI NAGATA, SEAN NEDD, HEATHER NETZLOFF, BOSILJKA NJEGIC, RYAN OLSON,
     MIKE PAK, SPENCER PRUITT, LUKE ROSKOP, JIM SHOEMAKER, LYUDMILA SLIPCHENKO,
     TONY SMITH, SAROM SOK, JIE SONG, TETSUYA TAKETSUGU, SIMON WEBB,
     PENG XU, SOOHAENG YOO, FEDERICO ZAHARIEV

  ADDITIONAL CODE HAS BEEN PROVIDED BY COLLABORATORS IN OTHER GROUPS:
     IOWA STATE UNIVERSITY:
          JOE IVANIC, AARON WEST, LAIMUTIS BYTAUTAS, KLAUS RUEDENBERG
     UNIVERSITY OF TOKYO: KIMIHIKO HIRAO, TAKAHITO NAKAJIMA,
          TAKAO TSUNEDA, MUNEAKI KAMIYA, SUSUMU YANAGISAWA,
          KIYOSHI YAGI, MAHITO CHIBA, SEIKEN TOKURA, NAOAKI KAWAKAMI
     UNIVERSITY OF AARHUS: FRANK JENSEN
     UNIVERSITY OF IOWA: VISVALDAS KAIRYS, HUI LI
     NATIONAL INST. OF STANDARDS AND TECHNOLOGY: WALT STEVENS, DAVID GARMER
     UNIVERSITY OF PISA: BENEDETTA MENNUCCI, JACOPO TOMASI
     UNIVERSITY OF MEMPHIS: HENRY KURTZ, PRAKASHAN KORAMBATH
     UNIVERSITY OF ALBERTA: TOBY ZENG, MARIUSZ KLOBUKOWSKI
     UNIVERSITY OF NEW ENGLAND: MARK SPACKMAN
     MIE UNIVERSITY: HIROAKI UMEDA
     NAT. INST. OF ADVANCED INDUSTRIAL SCIENCE AND TECHNOLOGY: KAZUO KITAURA
     MICHIGAN STATE UNIVERSITY:
          KAROL KOWALSKI, MARTA WLOCH, JEFFREY GOUR, JESSE LUTZ,
          WEI LI, PIOTR PIECUCH
     UNIVERSITY OF SILESIA: MONIKA MUSIAL, STANISLAW KUCHARSKI
     FACULTES UNIVERSITAIRES NOTRE-DAME DE LA PAIX:
          OLIVIER QUINET, BENOIT CHAMPAGNE
     UNIVERSITY OF CALIFORNIA - SANTA BARBARA: BERNARD KIRTMAN
     INSTITUTE FOR MOLECULAR SCIENCE:
          KAZUYA ISHIMURA, MICHIO KATOUDA, AND SHIGERU NAGASE
     UNIVERSITY OF NOTRE DAME: ANNA POMOGAEVA, DAN CHIPMAN
     KYUSHU UNIVERSITY:
          HARUYUKI NAKANO,
          FENG LONG GU, JACEK KORCHOWIEC, MARCIN MAKOWSKI, AND YURIKO AOKI,
          HIROTOSHI MORI AND EISAKU MIYOSHI
     PENNSYLVANIA STATE UNIVERSITY:
          TZVETELIN IORDANOV, CHET SWALINA, JONATHAN SKONE,
          SHARON HAMMES-SCHIFFER
     WASEDA UNIVERSITY:
          MASATO KOBAYASHI, TOMOKO AKAMA, TSUGUKI TOUMA,
          TAKESHI YOSHIKAWA, YASUHIRO IKABATA, HIROMI NAKAI
     NANJING UNIVERSITY: SHUHUA LI
     UNIVERSITY OF NEBRASKA:
          PEIFENG SU, DEJUN SI, NANDUN THELLAMUREGE, YALI WANG, HUI LI
     UNIVERSITY OF ZURICH: ROBERTO PEVERATI, KIM BALDRIDGE
     N. COPERNICUS UNIVERSITY AND JACKSON STATE UNIVERSITY:
          MARIA BARYSZ
     UNIVERSITY OF COPENHAGEN: CASPER STEINMANN
     TOKYO INSTITUTE OF TECHNOLOGY: HIROYA NAKATA
     NAGOYA UNIVERSITY: YOSHIO NISHIMOTO, STEPHAN IRLE


 PARALLEL VERSION RUNNING ON       16 PROCESSORS IN        1 NODES.

 EXECUTION OF GAMESS BEGUN Wed Jun  8 23:25:59 2016

            ECHO OF THE FIRST FEW INPUT CARDS -
 INPUT CARD> $ZMAT DLC=.T. AUTO=.T. $END                                                    
 INPUT CARD> $ZMAT IFZMAT(1)=1, 1 , 3  FVALUE(1)= 2.55 $END                                 
 INPUT CARD> $CONTRL COORD=UNIQUE NZVAR= 39 $END                                            
 INPUT CARD> $CONTRL ICHARG=+3 MULT=1                                                       
 INPUT CARD>         MPLEVL=2                                                               
 INPUT CARD>         SCFTYP=RHF                                                             
 INPUT CARD>         MAXIT=200 ISPHER=1 ICUT=11                                             
 INPUT CARD>         RUNTYP=OPTIMIZE                                                        
 INPUT CARD>         PP=READ                                                                
 INPUT CARD>         $END                                                                   
 INPUT CARD> $SCF    DIRSCF=.T. FDIFF=.F. $END                                              
 INPUT CARD> $TRANS  DIRTRF=.T. $END                                                        
 INPUT CARD> $SYSTEM MWORDS=300 MEMDDI=300 $END                                             
 INPUT CARD> $GUESS  GUESS=HUCKEL $END                                                      
 INPUT CARD> $BASIS  BASNAM(1)=METAL,                                                       
 INPUT CARD>                   LIGP,                                                        
 INPUT CARD>                   LIGO,                                                        
 INPUT CARD>                   LIGC,                                                        
 INPUT CARD>                   LIGC,                                                        
 INPUT CARD>                   LIGC,                                                        
 INPUT CARD>                   LIGH,                                                        
 INPUT CARD>                   LIGH,                                                        
 INPUT CARD>                   LIGH,                                                        
 INPUT CARD>                   LIGH,                                                        
 INPUT CARD>                   LIGH,                                                        
 INPUT CARD>                   LIGH,                                                        
 INPUT CARD>                   LIGH,                                                        
 INPUT CARD>                   LIGH,                                                        
 INPUT CARD>                   LIGH                                                         
 INPUT CARD> $END                                                                           
 INPUT CARD> $DATA                                                                          
 INPUT CARD>                                                                                
 INPUT CARD> C1                                                                             
 INPUT CARD> La 57.0 -0.1739353441 1.134168269 -4.0490164368                                
 INPUT CARD> P 15.0 -0.0245887638732 0.192331966807 0.150748893985                          
 INPUT CARD> O 8.0 -0.0864012868732 0.576572886707 -1.56226651401                           
 INPUT CARD> C 6.0 -1.47408065997 0.904787730607 0.886425769385                             
 INPUT CARD> C 6.0 1.46793819193 0.915076600107 0.783160081585                              
 INPUT CARD> C 6.0 -0.0136587844732 -1.57794808109 0.277511647185                           
 INPUT CARD> H 1.0 -1.47582932677 1.98762080161 0.773054371385                              
 INPUT CARD> H 1.0 -1.43734806367 0.668584953007 1.95431829329                              
 INPUT CARD> H 1.0 -2.37847524877 0.467082596607 0.467275254385                             
 INPUT CARD> H 1.0 2.34400668053 0.483109497907 0.302329799785                              
 INPUT CARD> H 1.0 1.50712399123 0.678514729007 1.85090310549                               
 INPUT CARD> H 1.0 1.45470105073 1.99783027491 0.670301078885                               
 INPUT CARD> H 1.0 0.868531715227 -1.99713942629 -0.203555658315                            
 INPUT CARD> H 1.0 -0.925040286173 -2.00399456909 -0.138687557515                           
 INPUT CARD> H 1.0 0.0258514042268 -1.81929490559 1.34408180109                             
 INPUT CARD> $END                                                                           
 INPUT CARD>!                                                                               
  300000000 WORDS OF MEMORY AVAILABLE

     BASIS OPTIONS
     -------------
     GBASIS=             IGAUSS=       0      POLAR=NONE    
     NDFUNC=       0     NFFUNC=       0     DIFFSP=       F
     NPFUNC=       0      DIFFS=       F     BASNAM=METAL   

 USING BASNAM FOR ATOM CUSTOMIZED BASIS CONSTRUCTION
     ----------------
     ATOM  BASIS NAME
     ----------------
       1   METAL   
       2   LIGP    
       3   LIGO    
       4   LIGC    
       5   LIGC    
       6   LIGC    
       7   LIGH    
       8   LIGH    
       9   LIGH    
      10   LIGH    
      11   LIGH    
      12   LIGH    
      13   LIGH    
      14   LIGH    
      15   LIGH    
 NOW LOCATING ALL   15 BASIS SETS IN YOUR INPUT FILE...
 FOUND BASIS SET  $METAL 
  SBKJC                        
                               
  $END                         
 FOUND BASIS SET  $LIGP  
  CCT                          
                               
  $END                         
 FOUND BASIS SET  $LIGO  
  CCT                          
                               
  $END                         
 FOUND BASIS SET  $LIGC  
  CCT                          
                               
  $END                         
 FOUND BASIS SET  $LIGH  
  CCT                          
                               
  $END                         
    5 UNIQUE ATOM CUSTOMIZED BASIS SETS WERE FOUND.

     SEARCHING FOR $MCP
     $MCP GROUP NOT FOUND


     RUN TITLE
     ---------
                                                                                 

 THE POINT GROUP OF THE MOLECULE IS C1      
 THE ORDER OF THE PRINCIPAL AXIS IS     0

 ATOM      ATOMIC                      COORDINATES (BOHR)
           CHARGE         X                   Y                   Z
 LA         57.0    -0.3286901399        2.1432672524       -7.6515315853
 P          15.0    -0.0464660261        0.3634547159        0.2848741026
 O           8.0    -0.1632747572        1.0895647678       -2.9522556313
 C           6.0    -2.7856085311        1.7098008879        1.6751018126
 C           6.0     2.7740009497        1.7292440320        1.4799579587
 C           6.0    -0.0258113600       -2.9818894961        0.5244209716
 H           1.0    -2.7889130322        3.7560586825        1.4608609355
 H           1.0    -2.7161939893        1.2634423607        3.6931260671
 H           1.0    -4.4946664888        0.8826581212        0.8830221916
 H           1.0     4.4295303396        0.9129445731        0.5713204795
 H           1.0     2.8480513729        1.2822069165        3.4976996992
 H           1.0     2.7489863799        3.7753517896        1.2666853684
 H           1.0     1.6412869534       -3.7740462750       -0.3846644175
 H           1.0    -1.7480726685       -3.7870006165       -0.2620814816
 H           1.0     0.0488520704       -3.4379688624        2.5399463091

          INTERNUCLEAR DISTANCES (ANGS.)
          ------------------------------

                1 LA         2 P          3 O          4 C          5 C     

   1 LA      0.0000000    4.3066680    2.5500000 *  5.1089708    5.1081973  
   2 P       4.3066680    0.0000000    1.7566683 *  1.7747790 *  1.7748072 *
   3 O       2.5500000 *  1.7566683 *  0.0000000    2.8336325 *  2.8340046 *
   4 C       5.1089708    1.7747790 *  2.8336325 *  0.0000000    2.9438486 *
   5 C       5.1081973    1.7748072 *  2.8340046 *  2.9438486 *  0.0000000  
   6 C       5.1088266    1.7748464 *  2.8340846 *  2.9440764 *  2.9438040 *
   7 H       5.0671171    2.3909047 *  3.0619096    1.0887532 *  3.1330848  
   8 H       6.1524798    2.3399932 *  3.7682744    1.0943196 *  3.1421422  
   9 H       5.0697032    2.3909116 *  3.0634345    1.0886701 *  3.8852771  
  10 H       5.0693317    2.3911865 *  3.0646921    3.8854564    1.0887099 *
  11 H       6.1516365    2.3394534 *  3.7682147    3.1414960    1.0943364 *
  12 H       5.0665892    2.3912459 *  3.0625687    3.1335625    1.0887001 *
  13 H       5.0674840    2.3910209 *  3.0630030    3.8854953    3.1327142  
  14 H       5.0698024    2.3913253 *  3.0641835    3.1326214    3.8855020  
  15 H       6.1521027    2.3394936 *  3.7682415    3.1432263    3.1418203  

                6 C          7 H          8 H          9 H         10 H     

   1 LA      5.1088266    5.0671171    6.1524798    5.0697032    5.0693317  
   2 P       1.7748464 *  2.3909047 *  2.3399932 *  2.3909116 *  2.3911865 *
   3 O       2.8340846 *  3.0619096    3.7682744    3.0634345    3.0646921  
   4 C       2.9440764 *  1.0887532 *  1.0943196 *  1.0886701 *  3.8854564  
   5 C       2.9438040 *  3.1330848    3.1421422    3.8852771    1.0887099 *
   6 C       0.0000000    3.8854584    3.1441187    3.1321746    3.1316387  
   7 H       3.8854584    0.0000000    1.7710790 *  1.7945214 *  4.1323459  
   8 H       3.1441187    1.7710790 *  0.0000000    1.7713330 *  4.1306308  
   9 H       3.1321746    1.7945214 *  1.7713330 *  0.0000000    4.7253888  
  10 H       3.1316387    4.1323459    4.1306308    4.7253888    0.0000000  
  11 H       3.1432412    3.4312574    2.9463043 *  4.1300134    1.7710548 *
  12 H       3.8854285    2.9323490 *  3.4321337    4.1325112    1.7946159 *
  13 H       1.0887641 *  4.7252629    4.1327458    4.1310360    2.9299456 *
  14 H       1.0887395 *  4.1312995    3.4330473    2.9301683 *  4.1312045  
  15 H       1.0942492 *  4.1320364    2.9500657 *  3.4317777    3.4293086  

               11 H         12 H         13 H         14 H         15 H     

   1 LA      6.1516365    5.0665892    5.0674840    5.0698024    6.1521027  
   2 P       2.3394534 *  2.3912459 *  2.3910209 *  2.3913253 *  2.3394936 *
   3 O       3.7682147    3.0625687    3.0630030    3.0641835    3.7682415  
   4 C       3.1414960    3.1335625    3.8854953    3.1326214    3.1432263  
   5 C       1.0943364 *  1.0887001 *  3.1327142    3.8855020    3.1418203  
   6 C       3.1432412    3.8854285    1.0887641 *  1.0887395 *  1.0942492 *
   7 H       3.4312574    2.9323490 *  4.7252629    4.1312995    4.1320364  
   8 H       2.9463043 *  3.4321337    4.1327458    3.4330473    2.9500657 *
   9 H       4.1300134    4.1325112    4.1310360    2.9301683 *  3.4317777  
  10 H       1.7710548 *  1.7946159 *  2.9299456 *  4.1312045    3.4293086  
  11 H       0.0000000    1.7712038 *  3.4333258    4.1315554    2.9478957 *
  12 H       1.7712038 *  0.0000000    4.1312229    4.7256993    4.1311060  
  13 H       3.4333258    4.1312229    0.0000000    1.7947578 *  1.7711354 *
  14 H       4.1315554    4.7256993    1.7947578 *  0.0000000    1.7711335 *
  15 H       2.9478957 *  4.1311060    1.7711354 *  1.7711335 *  0.0000000  

  * ... LESS THAN  3.000


     ATOMIC BASIS SET
     ----------------
 THE CONTRACTED PRIMITIVE FUNCTIONS HAVE BEEN UNNORMALIZED
 THE CONTRACTED BASIS FUNCTIONS ARE NOW NORMALIZED TO UNITY

  SHELL TYPE  PRIMITIVE        EXPONENT          CONTRACTION COEFFICIENT(S)

 LA        

      1   L       1             9.1730000   -0.054833023521   -0.009797991527
      1   L       2             3.1200000    0.676604290237    0.231261800020
      1   L       3             2.1040000   -1.034429443730   -0.601214480110
      1   L       4             1.3200000   -0.518907222591    0.195188831214
      1   L       5             0.4960000    1.631603699894    1.076136069429

      2   D       6             1.2380000   -0.053797021791
      2   D       7             0.6061000    0.380144153981
      2   D       8             0.2518000    0.720349291785

      3   D       9             0.0978700    1.000000000000

      4   L      10             0.6182000   -0.107095028128   -0.051868986063
      4   L      11             0.0454600    1.033448271434    1.008107729120

      5   L      12             0.0177500    1.000000000000    1.000000000000

      6   L      13             0.2004000    1.000000000000    1.000000000000

      7   D      14             0.0353600    1.000000000000

 P         

      8   S      15        312400.0000000    0.000057689641
      8   S      16         46800.0000000    0.000448246591
      8   S      17         10650.0000000    0.002349131061
      8   S      18          3018.0000000    0.009781571802
      8   S      19           986.8000000    0.034142936511
      8   S      20           357.4000000    0.100192955985
      8   S      21           139.6000000    0.234346168617
      8   S      22            57.6300000    0.382391849918
      8   S      23            24.6000000    0.318052941833
      8   S      24            10.1200000    0.070770999093
      8   S      25             4.2830000   -0.001817789630
      8   S      26             1.8050000    0.002161561737
      8   S      27             0.2782000    0.000432249354

      9   S      28        312400.0000000   -0.000016380204
      9   S      29         46800.0000000   -0.000127233535
      9   S      30         10650.0000000   -0.000668625166
      9   S      31          3018.0000000   -0.002795303744
      9   S      32           986.8000000   -0.009928227435
      9   S      33           357.4000000   -0.030244566456
      9   S      34           139.6000000   -0.077884705328
      9   S      35            57.6300000   -0.156724571545
      9   S      36            24.6000000   -0.198042753651
      9   S      37            10.1200000    0.037971251521
      9   S      38             4.2830000    0.552751544147
      9   S      39             1.8050000    0.542611452452
      9   S      40             0.2782000   -0.009675942874

     10   S      41        312400.0000000    0.000006865735
     10   S      42         46800.0000000    0.000053281983
     10   S      43         10650.0000000    0.000280421002
     10   S      44          3018.0000000    0.001170789768
     10   S      45           986.8000000    0.004173591138
     10   S      46           357.4000000    0.012720496749
     10   S      47           139.6000000    0.033152766352
     10   S      48            57.6300000    0.067671246836
     10   S      49            24.6000000    0.089831018862
     10   S      50            10.1200000   -0.020305232360
     10   S      51             4.2830000   -0.313280408979
     10   S      52             1.8050000   -0.563687905527
     10   S      53             0.2782000    1.117494073734

     11   S      54             0.6158000    1.000000000000

     12   S      55             0.1055000    1.000000000000

     13   P      56           504.9000000    0.002433660431
     13   P      57           119.4000000    0.019305559477
     13   P      58            37.9600000    0.088473106893
     13   P      59            13.9500000    0.254701981099
     13   P      60             5.4570000    0.440199242653
     13   P      61             2.1770000    0.383632006272
     13   P      62             0.2877000   -0.003946337074

     14   P      63           504.9000000   -0.000954298933
     14   P      64           119.4000000   -0.007664025747
     14   P      65            37.9600000   -0.035465925259
     14   P      66            13.9500000   -0.106164716437
     14   P      67             5.4570000   -0.187210586037
     14   P      68             2.1770000   -0.181495819791
     14   P      69             0.2877000    0.991672644618

     15   P      70             0.8010000    1.000000000000

     16   P      71             0.0971400    1.000000000000

     17   D      72             0.6480000    1.000000000000

     18   D      73             0.2180000    1.000000000000

     19   F      74             0.4520000    1.000000000000

     20   D      75             3.1200000    1.000000000000

 O         

     21   S      76         15330.0000000    0.000520198307
     21   S      77          2299.0000000    0.004023344781
     21   S      78           522.4000000    0.020729083329
     21   S      79           147.3000000    0.081082327080
     21   S      80            47.5500000    0.236226352118
     21   S      81            16.7600000    0.443518209420
     21   S      82             6.2070000    0.358670588689
     21   S      83             0.6882000   -0.008349797237

     22   S      84         15330.0000000   -0.000197236012
     22   S      85          2299.0000000   -0.001535010700
     22   S      86           522.4000000   -0.007951183914
     22   S      87           147.3000000   -0.032113452892
     22   S      88            47.5500000   -0.100269643049
     22   S      89            16.7600000   -0.234047111838
     22   S      90             6.2070000   -0.301410927756
     22   S      91             0.6882000    1.034919649508

     23   S      92             1.7520000    1.000000000000

     24   S      93             0.2384000    1.000000000000

     25   P      94            34.4600000    0.041163489568
     25   P      95             7.7490000    0.257762835858
     25   P      96             2.2800000    0.802419274427

     26   P      97             0.7156000    1.000000000000

     27   P      98             0.2140000    1.000000000000

     28   D      99             2.3140000    1.000000000000

     29   D     100             0.6450000    1.000000000000

     30   F     101             1.4280000    1.000000000000

 C         

     31   S     102          8236.0000000    0.000542430189
     31   S     103          1235.0000000    0.004196427901
     31   S     104           280.8000000    0.021540914108
     31   S     105            79.2700000    0.083614949614
     31   S     106            25.5900000    0.239871618922
     31   S     107             8.9970000    0.443751820060
     31   S     108             3.3190000    0.353579696469
     31   S     109             0.3643000   -0.009176366076

     32   S     110          8236.0000000   -0.000196392234
     32   S     111          1235.0000000   -0.001525950274
     32   S     112           280.8000000   -0.007890449028
     32   S     113            79.2700000   -0.031514870532
     32   S     114            25.5900000   -0.096910008320
     32   S     115             8.9970000   -0.220541526288
     32   S     116             3.3190000   -0.296069112937
     32   S     117             0.3643000    1.040503432950

     33   S     118             0.9059000    1.000000000000

     34   S     119             0.1285000    1.000000000000

     35   P     120            18.7100000    0.039426387165
     35   P     121             4.1330000    0.244088984924
     35   P     122             1.2000000    0.815492008943

     36   P     123             0.3827000    1.000000000000

     37   P     124             0.1209000    1.000000000000

     38   D     125             1.0970000    1.000000000000

     39   D     126             0.3180000    1.000000000000

     40   F     127             0.7610000    1.000000000000

 C         

     41   S     128          8236.0000000    0.000542430189
     41   S     129          1235.0000000    0.004196427901
     41   S     130           280.8000000    0.021540914108
     41   S     131            79.2700000    0.083614949614
     41   S     132            25.5900000    0.239871618922
     41   S     133             8.9970000    0.443751820060
     41   S     134             3.3190000    0.353579696469
     41   S     135             0.3643000   -0.009176366076

     42   S     136          8236.0000000   -0.000196392234
     42   S     137          1235.0000000   -0.001525950274
     42   S     138           280.8000000   -0.007890449028
     42   S     139            79.2700000   -0.031514870532
     42   S     140            25.5900000   -0.096910008320
     42   S     141             8.9970000   -0.220541526288
     42   S     142             3.3190000   -0.296069112937
     42   S     143             0.3643000    1.040503432950

     43   S     144             0.9059000    1.000000000000

     44   S     145             0.1285000    1.000000000000

     45   P     146            18.7100000    0.039426387165
     45   P     147             4.1330000    0.244088984924
     45   P     148             1.2000000    0.815492008943

     46   P     149             0.3827000    1.000000000000

     47   P     150             0.1209000    1.000000000000

     48   D     151             1.0970000    1.000000000000

     49   D     152             0.3180000    1.000000000000

     50   F     153             0.7610000    1.000000000000

 C         

     51   S     154          8236.0000000    0.000542430189
     51   S     155          1235.0000000    0.004196427901
     51   S     156           280.8000000    0.021540914108
     51   S     157            79.2700000    0.083614949614
     51   S     158            25.5900000    0.239871618922
     51   S     159             8.9970000    0.443751820060
     51   S     160             3.3190000    0.353579696469
     51   S     161             0.3643000   -0.009176366076

     52   S     162          8236.0000000   -0.000196392234
     52   S     163          1235.0000000   -0.001525950274
     52   S     164           280.8000000   -0.007890449028
     52   S     165            79.2700000   -0.031514870532
     52   S     166            25.5900000   -0.096910008320
     52   S     167             8.9970000   -0.220541526288
     52   S     168             3.3190000   -0.296069112937
     52   S     169             0.3643000    1.040503432950

     53   S     170             0.9059000    1.000000000000

     54   S     171             0.1285000    1.000000000000

     55   P     172            18.7100000    0.039426387165
     55   P     173             4.1330000    0.244088984924
     55   P     174             1.2000000    0.815492008943

     56   P     175             0.3827000    1.000000000000

     57   P     176             0.1209000    1.000000000000

     58   D     177             1.0970000    1.000000000000

     59   D     178             0.3180000    1.000000000000

     60   F     179             0.7610000    1.000000000000

 H         

     61   S     180            33.8700000    0.025494863235
     61   S     181             5.0950000    0.190362765893
     61   S     182             1.1590000    0.852162022245

     62   S     183             0.3258000    1.000000000000

     63   S     184             0.1027000    1.000000000000

     64   P     185             1.4070000    1.000000000000

     65   P     186             0.3880000    1.000000000000

     66   D     187             1.0570000    1.000000000000

 H         

     67   S     188            33.8700000    0.025494863235
     67   S     189             5.0950000    0.190362765893
     67   S     190             1.1590000    0.852162022245

     68   S     191             0.3258000    1.000000000000

     69   S     192             0.1027000    1.000000000000

     70   P     193             1.4070000    1.000000000000

     71   P     194             0.3880000    1.000000000000

     72   D     195             1.0570000    1.000000000000

 H         

     73   S     196            33.8700000    0.025494863235
     73   S     197             5.0950000    0.190362765893
     73   S     198             1.1590000    0.852162022245

     74   S     199             0.3258000    1.000000000000

     75   S     200             0.1027000    1.000000000000

     76   P     201             1.4070000    1.000000000000

     77   P     202             0.3880000    1.000000000000

     78   D     203             1.0570000    1.000000000000

 H         

     79   S     204            33.8700000    0.025494863235
     79   S     205             5.0950000    0.190362765893
     79   S     206             1.1590000    0.852162022245

     80   S     207             0.3258000    1.000000000000

     81   S     208             0.1027000    1.000000000000

     82   P     209             1.4070000    1.000000000000

     83   P     210             0.3880000    1.000000000000

     84   D     211             1.0570000    1.000000000000

 H         

     85   S     212            33.8700000    0.025494863235
     85   S     213             5.0950000    0.190362765893
     85   S     214             1.1590000    0.852162022245

     86   S     215             0.3258000    1.000000000000

     87   S     216             0.1027000    1.000000000000

     88   P     217             1.4070000    1.000000000000

     89   P     218             0.3880000    1.000000000000

     90   D     219             1.0570000    1.000000000000

 H         

     91   S     220            33.8700000    0.025494863235
     91   S     221             5.0950000    0.190362765893
     91   S     222             1.1590000    0.852162022245

     92   S     223             0.3258000    1.000000000000

     93   S     224             0.1027000    1.000000000000

     94   P     225             1.4070000    1.000000000000

     95   P     226             0.3880000    1.000000000000

     96   D     227             1.0570000    1.000000000000

 H         

     97   S     228            33.8700000    0.025494863235
     97   S     229             5.0950000    0.190362765893
     97   S     230             1.1590000    0.852162022245

     98   S     231             0.3258000    1.000000000000

     99   S     232             0.1027000    1.000000000000

    100   P     233             1.4070000    1.000000000000

    101   P     234             0.3880000    1.000000000000

    102   D     235             1.0570000    1.000000000000

 H         

    103   S     236            33.8700000    0.025494863235
    103   S     237             5.0950000    0.190362765893
    103   S     238             1.1590000    0.852162022245

    104   S     239             0.3258000    1.000000000000

    105   S     240             0.1027000    1.000000000000

    106   P     241             1.4070000    1.000000000000

    107   P     242             0.3880000    1.000000000000

    108   D     243             1.0570000    1.000000000000

 H         

    109   S     244            33.8700000    0.025494863235
    109   S     245             5.0950000    0.190362765893
    109   S     246             1.1590000    0.852162022245

    110   S     247             0.3258000    1.000000000000

    111   S     248             0.1027000    1.000000000000

    112   P     249             1.4070000    1.000000000000

    113   P     250             0.3880000    1.000000000000

    114   D     251             1.0570000    1.000000000000

 TOTAL NUMBER OF BASIS SET SHELLS             =  114
 NUMBER OF CARTESIAN GAUSSIAN BASIS FUNCTIONS =  354
 NOTE: THIS RUN WILL RESTRICT THE MO VARIATION SPACE TO SPHERICAL HARMONICS.
 THE NUMBER OF ORBITALS KEPT IN THE VARIATIONAL SPACE WILL BE PRINTED LATER.
 NUMBER OF ELECTRONS                          =  104
 CHARGE OF MOLECULE                           =    3
 SPIN MULTIPLICITY                            =    1
 NUMBER OF OCCUPIED ORBITALS (ALPHA)          =   52
 NUMBER OF OCCUPIED ORBITALS (BETA )          =   52
 TOTAL NUMBER OF ATOMS                        =   15
 THE NUCLEAR REPULSION ENERGY IS      610.8970711589
 NOTE THIS RUN IS USING CORE POTENTIALS, AND THE NUMBER OF ELECTRONS,
 OCCUPIED ORBITALS, AND NUCLEAR REPULSION ENERGY WILL BE ADJUSTED BELOW
 AFTER REMOVAL OF THE CORE CHARGES.

     $CONTRL OPTIONS
     ---------------
 SCFTYP=RHF          RUNTYP=OPTIMIZE     EXETYP=RUN     
 MPLEVL=       2     CITYP =NONE         CCTYP =NONE         VBTYP =NONE    
 DFTTYP=NONE         TDDFT =NONE    
 MULT  =       1     ICHARG=       3     NZVAR =      39     COORD =UNIQUE  
 PP    =READ         RELWFN=NONE         LOCAL =NONE         NUMGRD=       F
 ISPHER=       1     NOSYM =       0     MAXIT =     200     UNITS =ANGS    
 PLTORB=       F     MOLPLT=       F     AIMPAC=       F     FRIEND=        
 NPRINT=       7     IREST =       0     GEOM  =INPUT   
 NORMF =       0     NORMP =       0     ITOL  =      20     ICUT  =      11
 INTTYP=BEST         GRDTYP=BEST         QMTTOL= 1.0E-06

     $SYSTEM OPTIONS
     ---------------
  REPLICATED MEMORY=   300000000 WORDS (ON EVERY NODE).
 DISTRIBUTED MEMDDI=         300 MILLION WORDS IN AGGREGATE,
 MEMDDI DISTRIBUTED OVER  16 PROCESSORS IS    18750000 WORDS/PROCESSOR.
 TOTAL MEMORY REQUESTED ON EACH PROCESSOR=   318750000 WORDS.
 TIMLIM=      525600.00 MINUTES, OR     365.0 DAYS.
 PARALL= T  BALTYP=  DLB     KDIAG=    0  COREFL= F
 MXSEQ2=     300 MXSEQ3=     150  mem10=         0

          --------------
          ECP POTENTIALS
          --------------

 PARAMETERS FOR "LA-ECP  " ON ATOM    1 WITH ZCORE  46 AND LMAX  4 ARE
 FOR L= 4      COEFF    N           ZETA
    1       -2.85665    1        1.42345
 FOR L= 0      COEFF    N           ZETA
    1        8.85347    0       22.29739
    2      -68.41778    2        1.64320
    3      110.12463    2        1.85122
 FOR L= 1      COEFF    N           ZETA
    1        2.98675    0        1.77635
    2      -35.51815    2        3.98941
    3       53.65423    2        2.47524
 FOR L= 2      COEFF    N           ZETA
    1        1.67298    0        1.52169
    2       18.46625    2        1.52182
 FOR L= 3      COEFF    N           ZETA
    1       -4.64430    1        2.67762
    2      -14.43101    1       10.06608

 THE ECP RUN REMOVES   46 CORE ELECTRONS, AND THE SAME NUMBER OF PROTONS.
 NUMBER OF ELECTRONS KEPT IN THE CALCULATION IS =   58
 NUMBER OF OCCUPIED ORBITALS (ALPHA) KEPT IS    =   29
 NUMBER OF OCCUPIED ORBITALS (BETA ) KEPT IS    =   29
 THE ADJUSTED NUCLEAR REPULSION ENERGY=      323.2917992603
          ECP ANGULAR INTS.........     0.02 SECONDS

          ----------------
          PROPERTIES INPUT
          ----------------

     MOMENTS            FIELD           POTENTIAL          DENSITY
 IEMOM =       1   IEFLD =       0   IEPOT =       0   IEDEN =       0
 WHERE =COMASS     WHERE =NUCLEI     WHERE =NUCLEI     WHERE =NUCLEI  
 OUTPUT=BOTH       OUTPUT=BOTH       OUTPUT=BOTH       OUTPUT=BOTH    
 IEMINT=       0   IEFINT=       0                     IEDINT=       0
                                                       MORB  =       0
          EXTRAPOLATION IN EFFECT
          SOSCF IN EFFECT
 ORBITAL PRINTING OPTION: NPREO=     1   354     2     1

     -------------------------------
     INTEGRAL TRANSFORMATION OPTIONS
     -------------------------------
     NWORD  =            0
     CUTOFF = 1.0E-09     MPTRAN =       0
     DIRTRF =       T     AOINTS =DUP     

          ----------------------
          INTEGRAL INPUT OPTIONS
          ----------------------
 NOPK  =       1 NORDER=       0 SCHWRZ=       T

          -----------------------
          MP2 CONTROL INFORMATION
          -----------------------
          NACORE =       13  NBCORE =       13
          LMOMP2 =        F  AOINTS = DUP     
          METHOD =        2  NWORD  =               0
          MP2PRP =        F  OSPT   = NONE    
          CUTOFF = 1.00E-09  CPHFBS = BASISAO 
          CODE   = DDI     

          NUMBER OF CORE -A-  ORBITALS =    13
          NUMBER OF CORE -B-  ORBITALS =    13
          NUMBER OF OCC. -A-  ORBITALS =    29
          NUMBER OF OCC. -B-  ORBITALS =    29
          NUMBER OF MOLECULAR ORBITALS =   354
          NUMBER OF   BASIS  FUNCTIONS =   354

 
 
 -----------------------------------------------
  STATISTICS ON AUTOMATIC COORDINATE GENERATION 
 -----------------------------------------------
  NUMBER OF USER SPECIFIED BONDS                              0
  NUMBER OF BONDS                                            14
  NUMBER OF ANGLES                                           25
  NUMBER OF TORSIONS                                         30
  NUMBER OF EXTRA COORD.                                      0
  NUMBER OF EXTRA COORD. FOR CONSTRAINTS                      0
  NUMBER OF CONSTRAINED COORD.                                1
 
  TOTAL NUMBER OF PRIMITIVES                                 69
 -----------------------------------------------

   --- ENCODED Z MATRIX ---
 COORD  TYPE   I   J   K   L   M   N
    1      1    1   3
    2      1    2   4
    3      1    2   3
    4      1    2   6
    5      1    2   5
    6      1    4   8
    7      1    4   7
    8      1    4   9
    9      1    5  12
   10      1    5  11
   11      1    5  10
   12      1    6  15
   13      1    6  14
   14      1    6  13
   15      2    1   3   2
   16      2    2   5  11
   17      2    2   4   8
   18      2    2   6  13
   19      2    2   6  14
   20      2    2   4   9
   21      2    2   5  12
   22      2    2   5  10
   23      2    2   4   7
   24      2    2   6  15
   25      2    3   2   4
   26      2    3   2   5
   27      2    3   2   6
   28      2    4   2   6
   29      2    4   2   5
   30      2    5   2   6
   31      2    7   4   9
   32      2    7   4   8
   33      2    8   4   9
   34      2   10   5  11
   35      2   10   5  12
   36      2   11   5  12
   37      2   13   6  14
   38      2   13   6  15
   39      2   14   6  15
   40      3    1   3   2   5
   41      3    1   3   2   4
   42      3    1   3   2   6
   43      3    3   2   4   8
   44      3    3   2   6  15
   45      3    3   2   6  14
   46      3    3   2   4   7
   47      3    3   2   5  10
   48      3    3   2   6  13
   49      3    3   2   5  11
   50      3    3   2   5  12
   51      3    3   2   4   9
   52      3    4   2   6  15
   53      3    4   2   6  14
   54      3    4   2   5  10
   55      3    4   2   6  13
   56      3    4   2   5  12
   57      3    4   2   5  11
   58      3    5   2   6  15
   59      3    5   2   6  14
   60      3    5   2   4   7
   61      3    5   2   6  13
   62      3    5   2   4   9
   63      3    5   2   4   8
   64      3    6   2   4   7
   65      3    6   2   5  10
   66      3    6   2   5  11
   67      3    6   2   5  12
   68      3    6   2   4   9
   69      3    6   2   4   8

          INDEP./SYM. INTERNAL COORDINATES
          --------------------------------
 CRD  1=   1.0000 (  1)
 CRD  2=   0.1254 ( 20)  0.1210 ( 22)  0.1258 ( 24)  0.1628 ( 25)  0.2186 ( 26)
          -0.3814 ( 27)  0.2786 ( 28) -0.4862 ( 29)  0.2076 ( 30)  0.1755 ( 40)
          -0.1932 ( 41) -0.1368 ( 46)  0.1305 ( 50) -0.1069 ( 51)  0.1224 ( 52)
           0.1625 ( 53) -0.1392 ( 58) -0.1688 ( 61) -0.1260 ( 65) -0.1562 ( 66)
           0.1049 ( 68)  0.1454 ( 69)
 CRD  3=  -0.2526 (  2)  0.2291 (  5)  0.3847 ( 15)  0.1950 ( 18) -0.1848 ( 19)
          -0.1370 ( 20)  0.1597 ( 22) -0.3483 ( 28)  0.3839 ( 30)  0.1514 ( 40)
           0.1127 ( 41) -0.2641 ( 42)  0.1505 ( 44) -0.1082 ( 57) -0.1142 ( 63)
           0.1241 ( 64)  0.1320 ( 65)  0.1237 ( 67)  0.1332 ( 68)
 CRD  4=  -0.1661 (  2)  0.3892 (  4) -0.2231 (  5)  0.1361 ( 18)  0.1636 ( 19)
          -0.2212 ( 21) -0.2132 ( 23) -0.1071 ( 25) -0.1437 ( 26)  0.2507 ( 27)
          -0.1598 ( 29) -0.1227 ( 37)  0.1505 ( 40) -0.1665 ( 41)  0.2444 ( 43)
           0.1966 ( 46) -0.1510 ( 47) -0.2217 ( 49) -0.1837 ( 50)  0.1723 ( 51)
           0.1507 ( 54)  0.1180 ( 56) -0.1271 ( 60) -0.1514 ( 62)  0.1013 ( 65)
          -0.1147 ( 68)
 CRD  5=  -0.3965 (  2) -0.3965 (  4) -0.3965 (  5) -0.2736 ( 16) -0.2736 ( 17)
          -0.2736 ( 24)  0.1192 ( 32)  0.1193 ( 33)  0.1192 ( 34)  0.1191 ( 36)
           0.1191 ( 38)  0.1192 ( 39) -0.1211 ( 54)  0.1211 ( 55) -0.1211 ( 59)
           0.1211 ( 62) -0.1211 ( 64)  0.1211 ( 67)
 CRD  6=  -0.2467 (  2) -0.3433 (  3) -0.2465 (  4) -0.2459 (  5)  0.2310 ( 16)
           0.2314 ( 17) -0.2133 ( 18) -0.2126 ( 19) -0.2127 ( 20) -0.2132 ( 21)
          -0.2121 ( 22) -0.2138 ( 23)  0.2310 ( 24)  0.1638 ( 31)  0.1635 ( 35)
           0.1637 ( 37)  0.1289 ( 54) -0.1289 ( 55)  0.1288 ( 59) -0.1288 ( 62)
           0.1289 ( 64) -0.1287 ( 67)
 CRD  7=  -0.3741 (  2)  0.3421 (  5)  0.1097 ( 13) -0.1085 ( 14) -0.1560 ( 15)
           0.1878 ( 16) -0.2042 ( 17) -0.3710 ( 18)  0.3855 ( 19)  0.2791 ( 21)
          -0.1485 ( 22) -0.2360 ( 23)  0.1910 ( 32) -0.1978 ( 36)  0.1250 ( 38)
          -0.1471 ( 39)
 CRD  8=  -0.1402 (  2)  0.3213 (  4) -0.1815 (  5) -0.1957 ( 16) -0.1485 ( 17)
          -0.3547 ( 20)  0.3417 ( 21) -0.3212 ( 22)  0.3683 ( 23)  0.3459 ( 24)
           0.1897 ( 33)  0.1980 ( 34) -0.1549 ( 38) -0.1335 ( 39)
 CRD  9=  -0.1216 (  2)  0.1107 (  5) -0.3124 ( 15) -0.4058 ( 16)  0.4466 ( 17)
          -0.2855 ( 20)  0.2136 ( 21)  0.2680 ( 22) -0.2447 ( 23)  0.2121 ( 31)
          -0.1930 ( 35) -0.1075 ( 53)  0.1074 ( 56) -0.1075 ( 59)  0.1074 ( 67)
 CRD 10=  -0.3704 ( 18)  0.3708 ( 19) -0.3714 ( 20) -0.3698 ( 21)  0.3711 ( 22)
           0.3703 ( 23) -0.1315 ( 32)  0.1312 ( 33) -0.1307 ( 34)  0.1314 ( 36)
           0.1312 ( 38) -0.1311 ( 39)
 CRD 11=   0.1009 ( 11)  0.1412 ( 12) -0.2929 ( 16) -0.2181 ( 17) -0.2803 ( 18)
          -0.2441 ( 19)  0.3021 ( 20)  0.3227 ( 22)  0.5102 ( 24)  0.1166 ( 32)
          -0.1329 ( 35)  0.1245 ( 36)  0.2313 ( 37) -0.1076 ( 39)
 CRD 12=   0.7678 (  3)  0.1064 (  6)  0.1053 ( 10)  0.1057 ( 12)  0.2241 ( 16)
           0.2268 ( 17) -0.1103 ( 18) -0.1076 ( 19) -0.1087 ( 20) -0.1083 ( 21)
          -0.1088 ( 22) -0.1103 ( 23)  0.2252 ( 24)  0.1159 ( 31)  0.1151 ( 35)
           0.1154 ( 37)
 CRD 13=  -0.1678 (  2)  0.1521 (  5) -0.1311 (  6)  0.1197 ( 10) -0.3889 ( 15)
           0.2526 ( 16) -0.2769 ( 17)  0.2641 ( 18) -0.2727 ( 19) -0.1913 ( 21)
           0.1172 ( 22)  0.1554 ( 23) -0.2043 ( 25)  0.1857 ( 26)  0.1311 ( 28)
          -0.1449 ( 30)  0.1676 ( 33) -0.1715 ( 34) -0.1147 ( 38) -0.1102 ( 52)
          -0.1338 ( 53)  0.1045 ( 54) -0.1328 ( 55)  0.1145 ( 56) -0.1036 ( 58)
          -0.1271 ( 59)  0.1002 ( 60) -0.1261 ( 61)
 CRD 14=  -0.2089 ( 43) -0.2088 ( 44) -0.1810 ( 45) -0.1812 ( 46) -0.1809 ( 47)
          -0.1810 ( 48) -0.2087 ( 49) -0.1808 ( 50) -0.1812 ( 51) -0.2088 ( 52)
          -0.1811 ( 53) -0.1810 ( 54) -0.1811 ( 55) -0.1809 ( 56) -0.2088 ( 57)
          -0.2088 ( 58) -0.1810 ( 59) -0.1811 ( 60) -0.1810 ( 61) -0.1811 ( 62)
          -0.2088 ( 63) -0.1811 ( 64) -0.1809 ( 65) -0.2087 ( 66) -0.1809 ( 67)
          -0.1811 ( 68) -0.2088 ( 69)
 CRD 15=   0.1082 (  7)  0.1346 (  9) -0.1980 ( 13) -0.1936 ( 14) -0.1010 ( 38)
          -0.1067 ( 39) -0.2655 ( 43) -0.2450 ( 46)  0.2427 ( 47)  0.2411 ( 49)
           0.2184 ( 50) -0.2631 ( 51)  0.1759 ( 54)  0.1516 ( 56)  0.1743 ( 57)
          -0.1743 ( 60) -0.1924 ( 62) -0.1949 ( 63) -0.1869 ( 64)  0.1928 ( 65)
           0.1912 ( 66)  0.1684 ( 67) -0.2050 ( 68) -0.2074 ( 69)
 CRD 16=   0.3956 (  6)  0.3474 (  7)  0.3093 (  8) -0.3163 (  9) -0.3439 ( 10)
          -0.2568 ( 11)  0.1067 ( 16) -0.1225 ( 17) -0.1762 ( 20)  0.1154 ( 21)
           0.1639 ( 22) -0.1442 ( 23)  0.1836 ( 31)  0.1217 ( 32)  0.1401 ( 33)
          -0.1279 ( 34) -0.1601 ( 35) -0.1002 ( 36)
 CRD 17=   0.1711 (  6)  0.1816 (  8)  0.1558 (  9)  0.2604 ( 10)  0.2458 ( 11)
          -0.4311 ( 12) -0.3243 ( 13) -0.3369 ( 14)  0.1618 ( 18)  0.1712 ( 19)
          -0.1320 ( 21) -0.1017 ( 23)  0.1234 ( 24)  0.1176 ( 35) -0.1944 ( 37)
          -0.1295 ( 38) -0.1347 ( 39) -0.1005 ( 54)  0.1054 ( 60)  0.1100 ( 62)
           0.1038 ( 63)  0.1021 ( 68)
 CRD 18=  -0.1007 (  2) -0.1008 (  4) -0.1007 (  5) -0.2692 (  6) -0.3024 (  7)
          -0.3023 (  8) -0.3026 (  9) -0.2691 ( 10) -0.3024 ( 11) -0.2695 ( 12)
          -0.3028 ( 13) -0.3027 ( 14)  0.1121 ( 16)  0.1121 ( 17)  0.1014 ( 18)
           0.1015 ( 19)  0.1013 ( 20)  0.1013 ( 21)  0.1014 ( 22)  0.1012 ( 23)
           0.1122 ( 24) -0.1067 ( 31) -0.1049 ( 32) -0.1050 ( 33) -0.1049 ( 34)
          -0.1069 ( 35) -0.1049 ( 36) -0.1070 ( 37) -0.1049 ( 38) -0.1050 ( 39)
 CRD 19=  -0.1492 (  2)  0.1353 (  5) -0.1675 (  7) -0.2750 (  8)  0.1280 (  9)
           0.2731 ( 11) -0.1060 ( 13)  0.1475 ( 14) -0.1929 ( 15) -0.1090 ( 43)
           0.2553 ( 44)  0.2404 ( 45) -0.1028 ( 46) -0.1378 ( 47)  0.2406 ( 48)
          -0.1464 ( 49) -0.1377 ( 50) -0.1028 ( 51)  0.2127 ( 52)  0.1978 ( 53)
           0.1980 ( 55) -0.1064 ( 57)  0.2161 ( 58)  0.2011 ( 59)  0.2013 ( 61)
          -0.1036 ( 64) -0.1310 ( 65) -0.1395 ( 66) -0.1309 ( 67) -0.1036 ( 68)
          -0.1098 ( 69)
 CRD 20=   0.1948 (  6) -0.2683 (  8)  0.2752 ( 10) -0.2892 ( 11) -0.4802 ( 12)
           0.2114 ( 13)  0.2505 ( 14)  0.1487 ( 32) -0.1398 ( 35)  0.1602 ( 36)
           0.2437 ( 37) -0.1152 ( 38) -0.1367 ( 39) -0.1335 ( 45)  0.1300 ( 48)
          -0.1397 ( 53)  0.1238 ( 55) -0.1266 ( 59)  0.1370 ( 61)
 CRD 21=  -0.4067 (  6)  0.2854 (  7) -0.3075 (  9)  0.3673 ( 10) -0.2697 ( 13)
           0.2286 ( 14)  0.2100 ( 31) -0.1594 ( 33)  0.1701 ( 34) -0.1895 ( 35)
           0.1416 ( 38) -0.1179 ( 39)  0.1206 ( 44) -0.1021 ( 46)  0.1117 ( 47)
           0.1196 ( 51)  0.1238 ( 52)  0.1063 ( 54)  0.1230 ( 58) -0.1076 ( 60)
           0.1140 ( 62)  0.1138 ( 65)  0.1228 ( 68)
 CRD 22=  -0.3845 (  6)  0.1856 (  7)  0.1661 (  8)  0.1605 (  9) -0.3812 ( 10)
           0.1876 ( 11) -0.3766 ( 12)  0.1813 ( 13)  0.1624 ( 14)  0.1955 ( 31)
          -0.1036 ( 33)  0.1937 ( 35) -0.1048 ( 36)  0.1914 ( 37) -0.1014 ( 38)
          -0.1015 ( 45) -0.1036 ( 46) -0.1022 ( 47)  0.1049 ( 48)  0.1067 ( 50)
           0.1072 ( 51) -0.1174 ( 54)  0.1202 ( 55) -0.1168 ( 59)  0.1224 ( 62)
          -0.1188 ( 64)  0.1220 ( 67)
 CRD 23=  -0.3134 (  7)  0.3284 (  8)  0.3223 (  9) -0.3127 ( 11) -0.3143 ( 13)
           0.3253 ( 14) -0.1765 ( 32)  0.1680 ( 33) -0.1731 ( 34)  0.1677 ( 36)
           0.1685 ( 38) -0.1746 ( 39)  0.1256 ( 43)  0.1255 ( 44)  0.1242 ( 49)
           0.1261 ( 52)  0.1237 ( 57)  0.1249 ( 58)  0.1260 ( 63)  0.1248 ( 66)
           0.1250 ( 69)
 CRD 24=  -0.4051 (  7)  0.3156 (  8) -0.3888 (  9)  0.1222 ( 10)  0.2629 ( 11)
          -0.2066 ( 12)  0.1449 ( 13) -0.1748 ( 32)  0.2281 ( 33)  0.2198 ( 34)
          -0.1442 ( 36)  0.1196 ( 37)  0.1162 ( 43)  0.1285 ( 47) -0.1053 ( 49)
          -0.1269 ( 51)  0.1418 ( 54) -0.1405 ( 62)  0.1025 ( 63)  0.1359 ( 65)
          -0.1363 ( 68)  0.1067 ( 69)
 CRD 25=   0.2470 (  6) -0.2351 (  8) -0.1209 (  9) -0.2210 ( 10)  0.2823 ( 11)
          -0.3386 ( 13)  0.3583 ( 14) -0.1495 ( 31)  0.1579 ( 32)  0.1338 ( 35)
          -0.1856 ( 36)  0.2079 ( 38) -0.2222 ( 39) -0.1372 ( 45)  0.1308 ( 46)
          -0.1214 ( 48)  0.1436 ( 50) -0.1529 ( 53) -0.1370 ( 55)  0.1453 ( 56)
          -0.1546 ( 59)  0.1291 ( 60) -0.1387 ( 61)  0.1464 ( 64)  0.1609 ( 67)
 CRD 26=  -0.1117 (  2)  0.2617 (  4) -0.1500 (  5) -0.2387 (  7) -0.2619 (  9)
           0.1287 ( 12)  0.2569 ( 13)  0.2319 ( 14)  0.1605 ( 18)  0.1834 ( 19)
          -0.2100 ( 21) -0.1963 ( 23)  0.1021 ( 24) -0.1206 ( 27) -0.1084 ( 28)
           0.1891 ( 29)  0.1571 ( 32)  0.1266 ( 35)  0.1635 ( 36) -0.2213 ( 37)
          -0.1028 ( 38) -0.1230 ( 39) -0.1345 ( 40)  0.1490 ( 41) -0.1447 ( 43)
           0.1314 ( 49) -0.1426 ( 54) -0.1208 ( 56)  0.1267 ( 60)  0.1429 ( 62)
 CRD 27=   0.4667 (  3) -0.2684 (  6) -0.2679 ( 10) -0.2681 ( 12) -0.1524 ( 16)
          -0.1528 ( 17) -0.1526 ( 24)  0.1599 ( 32)  0.1605 ( 33)  0.1599 ( 34)
           0.1596 ( 36)  0.1596 ( 38)  0.1603 ( 39) -0.1010 ( 52)  0.1758 ( 54)
          -0.1756 ( 55)  0.1008 ( 57)  0.1008 ( 58)  0.1759 ( 59) -0.1758 ( 62)
          -0.1007 ( 63)  0.1756 ( 64) -0.1011 ( 66) -0.1758 ( 67)  0.1010 ( 69)
 CRD 28=   0.1304 (  6)  0.1624 (  7)  0.2600 (  8) -0.1262 (  9) -0.1188 ( 10)
          -0.2572 ( 11) -0.1340 ( 14) -0.2120 ( 15) -0.1448 ( 16)  0.1592 ( 17)
           0.2160 ( 20) -0.1368 ( 21) -0.2075 ( 22)  0.1631 ( 23) -0.1669 ( 25)
           0.1512 ( 26) -0.2278 ( 31) -0.1183 ( 32) -0.1942 ( 33)  0.1930 ( 34)
           0.2066 ( 35)  0.1038 ( 38) -0.1237 ( 42) -0.1100 ( 43)  0.2578 ( 44)
           0.1839 ( 45) -0.1153 ( 47)  0.1855 ( 48) -0.1477 ( 49)
 CRD 29=  -0.3201 (  2)  0.1840 (  3) -0.3202 (  4) -0.3197 (  5)  0.1796 (  7)
           0.1793 (  8)  0.1796 (  9)  0.1792 ( 11)  0.1794 ( 13)  0.1796 ( 14)
           0.1222 ( 16)  0.1223 ( 17)  0.1570 ( 18)  0.1569 ( 19)  0.1569 ( 20)
           0.1568 ( 21)  0.1568 ( 22)  0.1569 ( 23)  0.1223 ( 24) -0.2242 ( 31)
          -0.1057 ( 32) -0.1055 ( 33) -0.1052 ( 34) -0.2241 ( 35) -0.1055 ( 36)
          -0.2242 ( 37) -0.1056 ( 38) -0.1055 ( 39)
 CRD 30=  -0.2341 (  2)  0.5484 (  4) -0.3146 (  5)  0.1574 (  8)  0.1114 ( 10)
           0.1713 ( 11) -0.1945 ( 12) -0.1440 ( 13) -0.1610 ( 14)  0.1085 ( 16)
          -0.1866 ( 18) -0.1830 ( 19)  0.1237 ( 22) -0.1893 ( 24) -0.1548 ( 33)
          -0.1771 ( 34)  0.1693 ( 37)  0.2040 ( 38)  0.1910 ( 39)
 CRD 31=  -0.1876 (  3) -0.1767 (  6) -0.1765 ( 10) -0.1766 ( 12)  0.1279 ( 16)
           0.1278 ( 17)  0.1278 ( 24)  0.1001 ( 26)  0.1000 ( 27) -0.1360 ( 31)
          -0.1359 ( 35) -0.1359 ( 37)  0.1286 ( 45)  0.1280 ( 46)  0.1283 ( 47)
          -0.1279 ( 48) -0.1282 ( 50) -0.1285 ( 51)  0.1325 ( 52)  0.2612 ( 53)
          -0.2610 ( 56) -0.1332 ( 57) -0.1332 ( 58)  0.2609 ( 60) -0.2609 ( 61)
           0.1332 ( 63)  0.2613 ( 65)  0.1326 ( 66) -0.2612 ( 68) -0.1324 ( 69)
 CRD 32=  -0.4618 (  2)  0.4190 (  5)  0.1577 (  6)  0.1536 (  7) -0.1744 (  9)
          -0.1430 ( 10) -0.1949 ( 13)  0.1809 ( 14)  0.1239 ( 15) -0.1041 ( 16)
           0.1149 ( 17)  0.1138 ( 20) -0.1089 ( 21) -0.1022 ( 22)  0.1187 ( 23)
           0.1014 ( 25) -0.2000 ( 32)  0.2082 ( 36) -0.1304 ( 38)  0.1562 ( 39)
           0.1028 ( 43) -0.2411 ( 44)  0.1382 ( 49) -0.1040 ( 52) -0.1021 ( 58)
 CRD 33=   0.2306 (  7) -0.2309 (  8) -0.2311 (  9)  0.2314 ( 11)  0.2313 ( 13)
          -0.2308 ( 14) -0.1771 ( 32)  0.1769 ( 33) -0.1772 ( 34)  0.1775 ( 36)
           0.1774 ( 38) -0.1771 ( 39)  0.1514 ( 43)  0.1515 ( 44) -0.1131 ( 45)
          -0.1134 ( 46) -0.1132 ( 47) -0.1136 ( 48)  0.1517 ( 49) -0.1137 ( 50)
          -0.1130 ( 51)  0.1516 ( 52) -0.1130 ( 53) -0.1131 ( 54) -0.1135 ( 55)
          -0.1136 ( 56)  0.1517 ( 57)  0.1515 ( 58) -0.1131 ( 59) -0.1135 ( 60)
          -0.1136 ( 61) -0.1131 ( 62)  0.1513 ( 63) -0.1135 ( 64) -0.1131 ( 65)
           0.1517 ( 66) -0.1136 ( 67) -0.1131 ( 68)  0.1513 ( 69)
 CRD 34=   0.1296 (  6)  0.1145 (  7) -0.2290 (  8)  0.1581 ( 10) -0.2286 ( 11)
          -0.2869 ( 12)  0.1138 ( 13)  0.1395 ( 14)  0.1069 ( 20)  0.1064 ( 22)
           0.1374 ( 29) -0.1853 ( 32)  0.1136 ( 35) -0.1876 ( 36) -0.2062 ( 37)
           0.1109 ( 38)  0.1306 ( 39)  0.1052 ( 43)  0.1801 ( 45) -0.1751 ( 46)
          -0.1662 ( 48)  0.1855 ( 50)  0.1430 ( 53) -0.2034 ( 55)  0.1664 ( 56)
          -0.1160 ( 57)  0.2169 ( 59) -0.1599 ( 60) -0.1294 ( 61)  0.1203 ( 63)
          -0.1927 ( 64)  0.2074 ( 67)
 CRD 35=  -0.2878 (  6)  0.1938 (  7) -0.1980 (  9)  0.2678 ( 10) -0.1530 ( 13)
           0.1347 ( 14)  0.1003 ( 17)  0.1069 ( 30) -0.2083 ( 31)  0.1706 ( 33)
          -0.1723 ( 34)  0.1936 ( 35) -0.1184 ( 38)  0.1013 ( 39)  0.1309 ( 46)
          -0.2149 ( 47)  0.1082 ( 48)  0.1093 ( 50) -0.2174 ( 51) -0.2478 ( 54)
           0.1206 ( 55)  0.1171 ( 61) -0.2508 ( 62)  0.1551 ( 64) -0.1941 ( 65)
           0.1301 ( 67) -0.1932 ( 68)
 CRD 36=   0.1473 (  4)  0.2432 (  7) -0.1477 (  8)  0.2411 (  9) -0.1117 ( 10)
          -0.1134 ( 11)  0.1959 ( 12) -0.1295 ( 13)  0.1003 ( 20) -0.1161 ( 21)
          -0.1226 ( 23) -0.1087 ( 24)  0.1249 ( 29) -0.1187 ( 32)  0.1762 ( 33)
           0.1722 ( 34)  0.1749 ( 37)  0.1202 ( 43) -0.1212 ( 45)  0.1824 ( 47)
           0.1423 ( 48) -0.1087 ( 49) -0.1742 ( 51) -0.1667 ( 53) -0.1055 ( 56)
          -0.2464 ( 57)  0.1640 ( 61)  0.2649 ( 63) -0.2081 ( 66)  0.2362 ( 69)
 CRD 37=  -0.2303 (  2)  0.2092 (  5) -0.1116 (  6)  0.1656 (  8)  0.1014 ( 10)
          -0.1871 ( 11)  0.1929 ( 13) -0.2073 ( 14)  0.1436 ( 18) -0.1423 ( 19)
           0.1188 ( 25) -0.1077 ( 26)  0.1370 ( 28) -0.1511 ( 30) -0.1219 ( 31)
           0.1107 ( 35) -0.1126 ( 36)  0.1483 ( 38) -0.1532 ( 39)  0.1514 ( 42)
          -0.2085 ( 45)  0.1706 ( 46) -0.1935 ( 48)  0.1920 ( 50)  0.2691 ( 52)
           0.1062 ( 56) -0.1191 ( 57)  0.2763 ( 58)  0.1198 ( 60) -0.1213 ( 65)
          -0.1926 ( 66) -0.1312 ( 68) -0.1573 ( 69)
 CRD 38=   0.6874 ( 15) -0.2989 ( 25)  0.2711 ( 26)  0.2348 ( 28) -0.2589 ( 30)
           0.1320 ( 44)  0.1528 ( 45) -0.1134 ( 47)  0.1578 ( 48)  0.1193 ( 56)
           0.1084 ( 57)  0.1202 ( 60)  0.1034 ( 63)
 CRD 39=   0.5775 ( 40)  0.5772 ( 41)  0.5774 ( 42)

 THE DETERMINANT OF THE G MATRIX IS 10**(   -13)


                     --------------------
                     INTERNAL COORDINATES
                     --------------------

                 - - ATOMS - -         COORDINATE      COORDINATE
 NO.   TYPE    I  J  K  L  M  N        (BOHR,RAD)       (ANG,DEG)
 ----------------------------------------------------------------
   1 STRETCH   1  3                     4.8188013       2.5500000
   2 STRETCH   2  4                     3.3538460       1.7747790
   3 STRETCH   2  3                     3.3196218       1.7566683
   4 STRETCH   2  6                     3.3539733       1.7748464
   5 STRETCH   2  5                     3.3538992       1.7748072
   6 STRETCH   4  8                     2.0679643       1.0943196
   7 STRETCH   4  7                     2.0574453       1.0887532
   8 STRETCH   4  9                     2.0572881       1.0886701
   9 STRETCH   5 12                     2.0573449       1.0887001
  10 STRETCH   5 11                     2.0679960       1.0943364
  11 STRETCH   5 10                     2.0573635       1.0887099
  12 STRETCH   6 15                     2.0678311       1.0942492
  13 STRETCH   6 14                     2.0574193       1.0887395
  14 STRETCH   6 13                     2.0574658       1.0887641
  15 BEND      1  3  2                  3.1407285     179.9504864
  16 BEND      2  5 11                  1.8647629     106.8430437
  17 BEND      2  4  8                  1.8654887     106.8846315
  18 BEND      2  6 13                  1.9363405     110.9441357
  19 BEND      2  6 14                  1.9367673     110.9685932
  20 BEND      2  4  9                  1.9363663     110.9456164
  21 BEND      2  5 12                  1.9367468     110.9674169
  22 BEND      2  5 10                  1.9366586     110.9623649
  23 BEND      2  4  7                  1.9362777     110.9405404
  24 BEND      2  6 15                  1.8648449     106.8477426
  25 BEND      3  2  4                  1.8625915     106.7186329
  26 BEND      3  2  5                  1.8629232     106.7376352
  27 BEND      3  2  6                  1.8629692     106.7402727
  28 BEND      4  2  6                  1.9560829     112.0752918
  29 BEND      4  2  5                  1.9558860     112.0640120
  30 BEND      5  2  6                  1.9557846     112.0582053
  31 BEND      7  4  9                  1.9373963     111.0046285
  32 BEND      7  4  8                  1.8926647     108.4417006
  33 BEND      8  4  9                  1.8931684     108.4705596
  34 BEND     10  5 11                  1.8926604     108.4414529
  35 BEND     10  5 12                  1.9375674     111.0144323
  36 BEND     11  5 12                  1.8929064     108.4555452
  37 BEND     13  6 14                  1.9376724     111.0204481
  38 BEND     13  6 15                  1.8928290     108.4511126
  39 BEND     14  6 15                  1.8928573     108.4527372
  40 TORSION   1  3  2  5               0.6078242      34.8257610
  41 TORSION   1  3  2  4               2.7021086     154.8194186
  42 TORSION   1  3  2  6              -1.4865386     -85.1723900
  43 TORSION   3  2  4  8              -3.1397635    -179.8951976
  44 TORSION   3  2  6 15               3.1406228     179.9444323
  45 TORSION   3  2  6 14              -1.0822197     -62.0066193
  46 TORSION   3  2  4  7              -1.0795371     -61.8529181
  47 TORSION   3  2  5 10              -1.0836507     -62.0886112
  48 TORSION   3  2  6 13               1.0805476      61.9108182
  49 TORSION   3  2  5 11               3.1395369     179.8822159
  50 TORSION   3  2  5 12               1.0791952      61.8333328
  51 TORSION   3  2  4  9               1.0825410      62.0250294
  52 TORSION   4  2  6 15              -1.1093065     -63.5585802
  53 TORSION   4  2  6 14               0.9510363      54.4903681
  54 TORSION   4  2  5 10              -3.1167730    -178.5779384
  55 TORSION   4  2  6 13               3.1138036     178.4078057
  56 TORSION   4  2  5 12              -0.9539271     -54.6559945
  57 TORSION   4  2  5 11               1.1064146      63.3928887
  58 TORSION   5  2  6 15               1.1071274      63.4337280
  59 TORSION   5  2  6 14              -3.1157151    -178.5173236
  60 TORSION   5  2  4  7               0.9537852      54.6478664
  61 TORSION   5  2  6 13              -0.9529478     -54.5998861
  62 TORSION   5  2  4  9               3.1158633     178.5258139
  63 TORSION   5  2  4  8              -1.1064412     -63.3944130
  64 TORSION   6  2  4  7              -3.1130207    -178.3629494
  65 TORSION   6  2  5 10               0.9498725      54.4236833
  66 TORSION   6  2  5 11              -1.1101252     -63.6054896
  67 TORSION   6  2  5 12               3.1127184     178.3456273
  68 TORSION   6  2  4  9              -0.9509427     -54.4850018
  69 TORSION   6  2  4  8               1.1099381      63.5947712

     ------------------------------------------
     THE POINT GROUP IS C1 , NAXIS= 0, ORDER= 1
     ------------------------------------------

 -- VARIATIONAL SPACE WILL BE RESTRICTED TO PURE SPHERICAL HARMONICS ONLY --
 AFTER EXCLUDING CONTAMINANT COMBINATIONS FROM THE CARTESIAN GAUSSIAN BASIS
 SET, THE NUMBER OF SPHERICAL HARMONICS KEPT IN THE VARIATION SPACE IS  316

     DIMENSIONS OF THE SYMMETRY SUBSPACES ARE
 A   =  316

 ..... DONE SETTING UP THE RUN .....
 CPU     0: STEP CPU TIME=     0.09 TOTAL CPU TIME=        0.1 (    0.0 MIN)
 TOTAL WALL CLOCK TIME=        0.2 SECONDS, CPU UTILIZATION IS  56.25%


          -----------------------------
          STATIONARY POINT LOCATION RUN
          -----------------------------


           ** GEOMETRY CONSTRAINTS ARE BEING APPLIED. **

          TRANSFORMING DISPLACEMENT FROM INTERNALS TO CARTESIANS
          THE ROOT MEAN SQUARE ERROR IN ITERATION   1 IS   0.00000000
 WARNING! THE RADIUS IN CARTESIANS IS    0.00000
 OBTAINING INITIAL HESSIAN, HESS=GUESS   
 DIAGONAL GUESS HESSIAN IN INTERNAL COORDS IS
     1  0.2441     2  0.4333     3  0.3624     4  0.4333     5  0.4333
     6  0.3435     7  0.3472     8  0.3473     9  0.3472    10  0.3435
    11  0.3472    12  0.3435    13  0.3472    14  0.3472    15  0.2721
    16  0.2409    17  0.2409    18  0.2412    19  0.2412    20  0.2412
    21  0.2412    22  0.2412    23  0.2412    24  0.2409    25  0.2785
    26  0.2785    27  0.2785    28  0.2914    29  0.2914    30  0.2914
    31  0.2035    32  0.2032    33  0.2033    34  0.2032    35  0.2035
    36  0.2032    37  0.2035    38  0.2032    39  0.2033    40  0.2500
    41  0.2500    42  0.2500    43  0.2500    44  0.2500    45  0.2500
    46  0.2500    47  0.2500    48  0.2500    49  0.2500    50  0.2500
    51  0.2500    52  0.2500    53  0.2500    54  0.2500    55  0.2500
    56  0.2500    57  0.2500    58  0.2500    59  0.2500    60  0.2500
    61  0.2500    62  0.2500    63  0.2500    64  0.2500    65  0.2500
    66  0.2500    67  0.2500    68  0.2500    69  0.2500
 TRANSFORMING HESSIAN TO SYMMETRY COORDINATES

          PARAMETERS CONTROLLING GEOMETRY SEARCH ARE
          METHOD =QA                  UPHESS =BFGS    
          NNEG   =         0          NFRZ   =         0
          NSTEP  =        50          IFOLOW =         1
          HESS   =GUESS               RESTAR =         F
          IHREP  =         0          HSSEND =         F
          NPRT   =         0          NPUN   =         0
          OPTTOL = 1.000E-04          RMIN   = 1.500E-03
          RMAX   = 1.000E-01          RLIM   = 7.000E-02
          DXMAX  = 3.000E-01          PURIFY =         F
          MOVIE  =         F          TRUPD  =         T
          TRMAX  = 5.000E-01          TRMIN  = 5.000E-02
          ITBMAT =         5          STPT   =         F
          STSTEP = 1.000E-02          PROJCT=          T

 BEGINNING GEOMETRY SEARCH POINT NSERCH=   0 ...

 COORDINATES OF ALL ATOMS ARE (ANGS)
   ATOM   CHARGE       X              Y              Z
 ------------------------------------------------------------
 LA         57.0  -0.1739353441   1.1341682690  -4.0490164368
 P          15.0  -0.0245887639   0.1923319668   0.1507488940
 O           8.0  -0.0864012869   0.5765728867  -1.5622665140
 C           6.0  -1.4740806600   0.9047877306   0.8864257694
 C           6.0   1.4679381919   0.9150766001   0.7831600816
 C           6.0  -0.0136587845  -1.5779480811   0.2775116472
 H           1.0  -1.4758293268   1.9876208016   0.7730543714
 H           1.0  -1.4373480637   0.6685849530   1.9543182933
 H           1.0  -2.3784752488   0.4670825966   0.4672752544
 H           1.0   2.3440066805   0.4831094979   0.3023297998
 H           1.0   1.5071239912   0.6785147290   1.8509031055
 H           1.0   1.4547010507   1.9978302749   0.6703010789
 H           1.0   0.8685317152  -1.9971394263  -0.2035556583
 H           1.0  -0.9250402862  -2.0039945691  -0.1386875575
 H           1.0   0.0258514042  -1.8192949056   1.3440818011


                     --------------------
                     INTERNAL COORDINATES
                     --------------------

                 - - ATOMS - -         COORDINATE      COORDINATE
 NO.   TYPE    I  J  K  L  M  N        (BOHR,RAD)       (ANG,DEG)
 ----------------------------------------------------------------
   1 STRETCH   1  3                     4.8188013       2.5500000
   2 STRETCH   2  4                     3.3538460       1.7747790
   3 STRETCH   2  3                     3.3196218       1.7566683
   4 STRETCH   2  6                     3.3539733       1.7748464
   5 STRETCH   2  5                     3.3538992       1.7748072
   6 STRETCH   4  8                     2.0679643       1.0943196
   7 STRETCH   4  7                     2.0574453       1.0887532
   8 STRETCH   4  9                     2.0572881       1.0886701
   9 STRETCH   5 12                     2.0573449       1.0887001
  10 STRETCH   5 11                     2.0679960       1.0943364
  11 STRETCH   5 10                     2.0573635       1.0887099
  12 STRETCH   6 15                     2.0678311       1.0942492
  13 STRETCH   6 14                     2.0574193       1.0887395
  14 STRETCH   6 13                     2.0574658       1.0887641
  15 BEND      1  3  2                  3.1407285     179.9504864
  16 BEND      2  5 11                  1.8647629     106.8430437
  17 BEND      2  4  8                  1.8654887     106.8846315
  18 BEND      2  6 13                  1.9363405     110.9441357
  19 BEND      2  6 14                  1.9367673     110.9685932
  20 BEND      2  4  9                  1.9363663     110.9456164
  21 BEND      2  5 12                  1.9367468     110.9674169
  22 BEND      2  5 10                  1.9366586     110.9623649
  23 BEND      2  4  7                  1.9362777     110.9405404
  24 BEND      2  6 15                  1.8648449     106.8477426
  25 BEND      3  2  4                  1.8625915     106.7186329
  26 BEND      3  2  5                  1.8629232     106.7376352
  27 BEND      3  2  6                  1.8629692     106.7402727
  28 BEND      4  2  6                  1.9560829     112.0752918
  29 BEND      4  2  5                  1.9558860     112.0640120
  30 BEND      5  2  6                  1.9557846     112.0582053
  31 BEND      7  4  9                  1.9373963     111.0046285
  32 BEND      7  4  8                  1.8926647     108.4417006
  33 BEND      8  4  9                  1.8931684     108.4705596
  34 BEND     10  5 11                  1.8926604     108.4414529
  35 BEND     10  5 12                  1.9375674     111.0144323
  36 BEND     11  5 12                  1.8929064     108.4555452
  37 BEND     13  6 14                  1.9376724     111.0204481
  38 BEND     13  6 15                  1.8928290     108.4511126
  39 BEND     14  6 15                  1.8928573     108.4527372
  40 TORSION   1  3  2  5               0.6078242      34.8257610
  41 TORSION   1  3  2  4               2.7021086     154.8194186
  42 TORSION   1  3  2  6              -1.4865386     -85.1723900
  43 TORSION   3  2  4  8              -3.1397635    -179.8951976
  44 TORSION   3  2  6 15               3.1406228     179.9444323
  45 TORSION   3  2  6 14              -1.0822197     -62.0066193
  46 TORSION   3  2  4  7              -1.0795371     -61.8529181
  47 TORSION   3  2  5 10              -1.0836507     -62.0886112
  48 TORSION   3  2  6 13               1.0805476      61.9108182
  49 TORSION   3  2  5 11               3.1395369     179.8822159
  50 TORSION   3  2  5 12               1.0791952      61.8333328
  51 TORSION   3  2  4  9               1.0825410      62.0250294
  52 TORSION   4  2  6 15              -1.1093065     -63.5585802
  53 TORSION   4  2  6 14               0.9510363      54.4903681
  54 TORSION   4  2  5 10              -3.1167730    -178.5779384
  55 TORSION   4  2  6 13               3.1138036     178.4078057
  56 TORSION   4  2  5 12              -0.9539271     -54.6559945
  57 TORSION   4  2  5 11               1.1064146      63.3928887
  58 TORSION   5  2  6 15               1.1071274      63.4337280
  59 TORSION   5  2  6 14              -3.1157151    -178.5173236
  60 TORSION   5  2  4  7               0.9537852      54.6478664
  61 TORSION   5  2  6 13              -0.9529478     -54.5998861
  62 TORSION   5  2  4  9               3.1158633     178.5258139
  63 TORSION   5  2  4  8              -1.1064412     -63.3944130
  64 TORSION   6  2  4  7              -3.1130207    -178.3629494
  65 TORSION   6  2  5 10               0.9498725      54.4236833
  66 TORSION   6  2  5 11              -1.1101252     -63.6054896
  67 TORSION   6  2  5 12               3.1127184     178.3456273
  68 TORSION   6  2  4  9              -0.9509427     -54.4850018
  69 TORSION   6  2  4  8               1.1099381      63.5947712

          ********************
          1 ELECTRON INTEGRALS
          ********************
 TIME TO DO ORDINARY INTEGRALS=      0.02
 TIME TO DO      ECP INTEGRALS=      0.06
 ...... END OF ONE-ELECTRON INTEGRALS ......
 CPU     0: STEP CPU TIME=     0.08 TOTAL CPU TIME=        0.2 (    0.0 MIN)
 TOTAL WALL CLOCK TIME=        0.3 SECONDS, CPU UTILIZATION IS  60.71%

          -------------
          GUESS OPTIONS
          -------------
          GUESS =HUCKEL            NORB  =       0          NORDER=       0
          MIX   =       F          PRTMO =       F          PUNMO =       F
          TOLZ  = 1.0E-08          TOLE  = 1.0E-05
          SYMDEN=       F          PURIFY=       F

 INITIAL GUESS ORBITALS GENERATED BY HUCKEL   ROUTINE.
 HUCKEL GUESS REQUIRES    916545 WORDS.

 STATISTICS FOR GENERATION OF SYMMETRY ORBITAL -Q- MATRIX
 NUMBER OF CARTESIAN ATOMIC ORBITALS=        354
 NUMBER OF SPHERICAL CONTAMINANTS DROPPED=    38
 NUMBER OF LINEARLY DEPENDENT MOS DROPPED=     0
 TOTAL NUMBER OF MOS IN VARIATION SPACE=     316

 SYMMETRIES FOR INITIAL GUESS ORBITALS FOLLOW.   BOTH SET(S).
    29 ORBITALS ARE OCCUPIED (   13 CORE ORBITALS).
    14=A       15=A       16=A       17=A       18=A       19=A       20=A   
    21=A       22=A       23=A       24=A       25=A       26=A       27=A   
    28=A       29=A       30=A       31=A       32=A       33=A       34=A   
    35=A       36=A       37=A       38=A       39=A   
 ...... END OF INITIAL ORBITAL SELECTION ......
 CPU     0: STEP CPU TIME=     0.19 TOTAL CPU TIME=        0.4 (    0.0 MIN)
 TOTAL WALL CLOCK TIME=        0.8 SECONDS, CPU UTILIZATION IS  47.37%

                    ----------------------
                    AO INTEGRAL TECHNOLOGY
                    ----------------------
     S,P,L SHELL ROTATED AXIS INTEGRALS, REPROGRAMMED BY
        KAZUYA ISHIMURA (IMS) AND JOSE SIERRA (SYNSTAR).
     S,P,D,L SHELL ROTATED AXIS INTEGRALS PROGRAMMED BY
        KAZUYA ISHIMURA (INSTITUTE FOR MOLECULAR SCIENCE).
     S,P,D,F,G SHELL TO TOTAL QUARTET ANGULAR MOMENTUM SUM 5,
        ERIC PROGRAM BY GRAHAM FLETCHER (ELORET AND NASA ADVANCED
        SUPERCOMPUTING DIVISION, AMES RESEARCH CENTER).
     S,P,D,F,G,L SHELL GENERAL RYS QUADRATURE PROGRAMMED BY
        MICHEL DUPUIS (PACIFIC NORTHWEST NATIONAL LABORATORY).

          --------------------
          2 ELECTRON INTEGRALS
          --------------------

 DIRECT SCF METHOD SKIPS INTEGRAL STORAGE ON DISK.
 DIRECT TRANSFORMATION SKIPS AO INTEGRAL STORAGE ON DISK.
  ...... END OF TWO-ELECTRON INTEGRALS .....
 CPU     0: STEP CPU TIME=     0.01 TOTAL CPU TIME=        0.4 (    0.0 MIN)
 TOTAL WALL CLOCK TIME=        0.8 SECONDS, CPU UTILIZATION IS  48.05%

          --------------------------
                 RHF SCF CALCULATION
          --------------------------

     NUCLEAR ENERGY =       323.2917992604
     MAXIT =  200     NPUNCH=    2
     EXTRAP=T  DAMP=F  SHIFT=F  RSTRCT=F  DIIS=F  DEM=F  SOSCF=T
     DENSITY MATRIX CONV=  2.00E-06
     SOSCF WILL OPTIMIZE    8323 ORBITAL ROTATIONS, SOGTOL=   0.250
     MEMORY REQUIRED FOR RHF ITERS=    982670 WORDS.

 DIRECT SCF CALCULATION, SCHWRZ=T   FDIFF=F,  DIRTHR=  0.00E+00 NITDIR=10
 SCHWARZ INEQUALITY OVERHEAD:     62118 INTEGRALS, T=        0.00

                                                                                   NONZERO     BLOCKS
 ITER EX DEM     TOTAL ENERGY        E CHANGE  DENSITY CHANGE     ORB. GRAD      INTEGRALS    SKIPPED
   1  0  0     -563.4950807288  -563.4950807288   0.367479902   0.000000000     1424202037    4408012
          ---------------START SECOND ORDER SCF---------------
   2  1  0     -564.5719970401    -1.0769163114   0.110061983   0.045415275     1410249956    4735907
   3  2  0     -564.6449661059    -0.0729690658   0.047797654   0.028357615     1409076324    4736401
   4  3  0     -564.6669170896    -0.0219509837   0.010821353   0.003882196     1409869642    4726858
   5  4  0     -564.6677425434    -0.0008254539   0.004610041   0.003722663     1410329119    4720880
   6  5  0     -564.6680659459    -0.0003234025   0.001463791   0.000595621     1410348120    4720414
   7  6  0     -564.6680834904    -0.0000175445   0.000762957   0.000206605     1410354811    4720267
   8  7  0     -564.6680859808    -0.0000024905   0.000178485   0.000084496     1410362837    4720270
   9  8  0     -564.6680861617    -0.0000001808   0.000063584   0.000038199     1410365841    4720254
  10  9  0     -564.6680861913    -0.0000000296   0.000023723   0.000010205     1410368723    4720254
  11 10  0     -564.6680861955    -0.0000000042   0.000009899   0.000003093     1410367973    4720271
  12 11  0     -564.6680861962    -0.0000000008   0.000004185   0.000001279     1410367733    4720272
  13 12  0     -564.6680861964    -0.0000000001   0.000002458   0.000000465     1410367704    4720271
  14 13  0     -564.6680861964    -0.0000000000   0.000000947   0.000000152     1410367856    4720269

          -----------------
          DENSITY CONVERGED
          -----------------
     TIME TO FORM FOCK OPERATORS=      88.7 SECONDS (       6.3 SEC/ITER)
     FOCK TIME ON FIRST ITERATION=       6.4, LAST ITERATION=       6.3
     TIME TO SOLVE SCF EQUATIONS=       0.4 SECONDS (       0.0 SEC/ITER)

 FINAL RHF ENERGY IS     -564.6680861964 AFTER  14 ITERATIONS

          ------------
          EIGENVECTORS
          ------------

                      1          2          3          4          5
                  -80.4330   -20.9735   -11.5997   -11.5997   -11.5997
                     A          A          A          A          A   
    1  LA 1  S    0.000003  -0.000002   0.000000   0.000004   0.000005
    2  LA 1  X    0.000000   0.000000  -0.000004  -0.000005   0.000004
    3  LA 1  Y   -0.000001  -0.000002  -0.000007   0.000002  -0.000003
    4  LA 1  Z    0.000006   0.000008  -0.000001   0.000005   0.000004
    5  LA 1 XX    0.000002  -0.000009   0.000003  -0.000004  -0.000002
    6  LA 1 YY    0.000002  -0.000008  -0.000004  -0.000000  -0.000004
    7  LA 1 ZZ   -0.000004   0.000017   0.000001   0.000004   0.000006
    8  LA 1 XY    0.000000  -0.000000   0.000002   0.000002  -0.000002
    9  LA 1 XZ   -0.000000   0.000001   0.000001   0.000002  -0.000001
   10  LA 1 YZ    0.000002  -0.000007   0.000001  -0.000002  -0.000002
   11  LA 1 XX    0.000002   0.000041  -0.000007   0.000023   0.000022
   12  LA 1 YY    0.000002   0.000035   0.000009   0.000013   0.000024
   13  LA 1 ZZ   -0.000004  -0.000077  -0.000002  -0.000035  -0.000046
   14  LA 1 XY    0.000000   0.000001  -0.000005  -0.000005   0.000005
   15  LA 1 XZ   -0.000000  -0.000005  -0.000003  -0.000006   0.000000
   16  LA 1 YZ    0.000002   0.000031  -0.000000   0.000015   0.000017
   17  LA 1  S   -0.000009  -0.000047  -0.000004  -0.000101  -0.000127
   18  LA 1  X    0.000000  -0.000001  -0.000010  -0.000013   0.000008
   19  LA 1  Y   -0.000000   0.000010  -0.000015   0.000017   0.000006
   20  LA 1  Z    0.000000  -0.000042  -0.000004  -0.000040  -0.000055
   21  LA 1  S    0.000005   0.000037   0.000005   0.000151   0.000189
   22  LA 1  X    0.000000   0.000001   0.000024   0.000034  -0.000018
   23  LA 1  Y   -0.000000  -0.000008   0.000036  -0.000048  -0.000024
   24  LA 1  Z    0.000001   0.000034   0.000012   0.000128   0.000171
   25  LA 1  S   -0.000006   0.000014  -0.000000  -0.000005  -0.000006
   26  LA 1  X   -0.000001  -0.000001   0.000007   0.000008  -0.000007
   27  LA 1  Y    0.000003   0.000004   0.000010  -0.000002   0.000008
   28  LA 1  Z   -0.000016  -0.000016   0.000002  -0.000015  -0.000016
   29  LA 1 XX   -0.000002  -0.000014   0.000008  -0.000042  -0.000047
   30  LA 1 YY   -0.000001  -0.000012  -0.000020  -0.000024  -0.000049
   31  LA 1 ZZ    0.000003   0.000026   0.000012   0.000066   0.000096
   32  LA 1 XY   -0.000000  -0.000000   0.000003   0.000000  -0.000003
   33  LA 1 XZ    0.000000   0.000002   0.000019   0.000029  -0.000014
   34  LA 1 YZ   -0.000001  -0.000010   0.000024  -0.000041  -0.000027
   35  P  2  S    1.000136   0.000072   0.000003   0.000086   0.000107
   36  P  2  S    0.000165   0.000449   0.000023   0.000612   0.000764
   37  P  2  S    0.000181   0.000591   0.000035   0.000950   0.001188
   38  P  2  S   -0.000938  -0.000178  -0.000011  -0.000304  -0.000380
   39  P  2  S   -0.000373  -0.002394   0.000005   0.000098   0.000123
   40  P  2  X   -0.000002  -0.000003   0.000298   0.000377  -0.000300
   41  P  2  Y    0.000015   0.000021   0.000472  -0.000263   0.000131
   42  P  2  Z   -0.000068  -0.000093   0.000101   0.000077   0.000227
   43  P  2  X   -0.000002  -0.000010   0.000787   0.000995  -0.000793
   44  P  2  Y    0.000013   0.000060   0.001245  -0.000691   0.000350
   45  P  2  Z   -0.000058  -0.000268   0.000265   0.000188   0.000580
   46  P  2  X    0.000001   0.000004  -0.000032  -0.000041   0.000032
   47  P  2  Y   -0.000008  -0.000026  -0.000051   0.000031  -0.000011
   48  P  2  Z    0.000035   0.000114  -0.000011  -0.000020  -0.000038
   49  P  2  X   -0.000003   0.000052  -0.000055  -0.000057   0.000068
   50  P  2  Y    0.000018  -0.000328  -0.000088  -0.000020  -0.000108
   51  P  2  Z   -0.000082   0.001454  -0.000006   0.000290   0.000337
   52  P  2 XX   -0.000003  -0.000065   0.000204  -0.000056   0.000110
   53  P  2 YY   -0.000003  -0.000056  -0.000228   0.000144  -0.000047
   54  P  2 ZZ    0.000006   0.000121   0.000024  -0.000088  -0.000064
   55  P  2 XY   -0.000000  -0.000002   0.000125   0.000153  -0.000124
   56  P  2 XZ    0.000000   0.000008   0.000090   0.000122  -0.000109
   57  P  2 YZ   -0.000002  -0.000048   0.000049  -0.000005   0.000055
   58  P  2 XX   -0.000023  -0.000015   0.000275   0.000066   0.000286
   59  P  2 YY   -0.000020  -0.000013  -0.000387   0.000341   0.000039
   60  P  2 ZZ    0.000043   0.000028   0.000111  -0.000407  -0.000325
   61  P  2 XY   -0.000001  -0.000000   0.000132   0.000147  -0.000113
   62  P  2 XZ    0.000003   0.000002   0.000279   0.000343  -0.000324
   63  P  2 YZ   -0.000017  -0.000011   0.000315  -0.000032   0.000274
   64  P  2 XXX   0.000001   0.000010   0.000022   0.000030  -0.000016
   65  P  2 YYY  -0.000006   0.000029   0.000029  -0.000073  -0.000061
   66  P  2 ZZZ  -0.000012  -0.000181  -0.000029  -0.000039  -0.000084
   67  P  2 XXY  -0.000000  -0.000161   0.000015   0.000039   0.000057
   68  P  2 XXZ   0.000010   0.000109   0.000013   0.000044   0.000077
   69  P  2 YYX   0.000000   0.000003   0.000005   0.000006  -0.000002
   70  P  2 YYZ   0.000007   0.000134   0.000026   0.000009   0.000036
   71  P  2 ZZX  -0.000001  -0.000017  -0.000035  -0.000046   0.000024
   72  P  2 ZZY   0.000008   0.000123  -0.000054   0.000059   0.000024
   73  P  2 XYZ   0.000000   0.000012   0.000016   0.000025  -0.000021
   74  P  2 XX    0.000001   0.000022  -0.000004   0.000003  -0.000000
   75  P  2 YY    0.000001   0.000019   0.000004  -0.000001   0.000003
   76  P  2 ZZ   -0.000002  -0.000041  -0.000000  -0.000002  -0.000003
   77  P  2 XY    0.000000   0.000001  -0.000003  -0.000004   0.000003
   78  P  2 XZ   -0.000000  -0.000003  -0.000001  -0.000002   0.000001
   79  P  2 YZ    0.000001   0.000016   0.000000   0.000001   0.000001
   80  O  3  S    0.000000   0.975775   0.000001   0.000028   0.000036
   81  O  3  S    0.000000  -0.001108   0.000001   0.000042   0.000052
   82  O  3  S    0.000005   0.043123  -0.000000  -0.000012  -0.000015
   83  O  3  S   -0.000064   0.004802   0.000006   0.000139   0.000173
   84  O  3  X    0.000000   0.000021  -0.000004  -0.000006   0.000004
   85  O  3  Y   -0.000000  -0.000124  -0.000007   0.000006   0.000001
   86  O  3  Z    0.000001   0.000550  -0.000002  -0.000011  -0.000016
   87  O  3  X   -0.000001  -0.000019   0.000011   0.000015  -0.000010
   88  O  3  Y    0.000004   0.000118   0.000017  -0.000017  -0.000004
   89  O  3  Z   -0.000016  -0.000526   0.000005   0.000035   0.000049
[...]
            144  C  4 XXZ     0.00083     0.07720
            145  C  4 YYX     0.00084     0.06907
            146  C  4 YYZ     0.00135     0.06647
            147  C  4 ZZX     0.00000     0.06935
            148  C  4 ZZY     0.00000     0.06676
            149  C  4 XYZ     0.00000     0.00299
            150  C  5  S      1.95555     1.55554
            151  C  5  S      0.82758     0.43101
            152  C  5  S      0.16185     0.27791
            153  C  5  S      0.32326     0.14848
            154  C  5  X      0.27139     0.21020
            155  C  5  Y      0.29490     0.22661
            156  C  5  Z      0.29351     0.22572
            157  C  5  X      0.51299     0.26513
            158  C  5  Y      0.53909     0.27972
            159  C  5  Z      0.53817     0.28001
            160  C  5  X      0.13711     0.18336
            161  C  5  Y      0.19166     0.20279
            162  C  5  Z      0.22642     0.20905
            163  C  5 XX      0.00521     0.08560
            164  C  5 YY      0.00521     0.08696
            165  C  5 ZZ      0.00428     0.08566
            166  C  5 XY      0.00418     0.00472
            167  C  5 XZ      0.00338     0.00451
            168  C  5 YZ      0.00000     0.00378
            169  C  5 XX      0.00817     0.09206
            170  C  5 YY      0.01264     0.09053
            171  C  5 ZZ      0.01161     0.08531
            172  C  5 XY      0.01013     0.02696
            173  C  5 XZ      0.00816     0.02472
            174  C  5 YZ      0.00000     0.01545
            175  C  5 XXX     0.00092     0.15890
            176  C  5 YYY     0.00073     0.17169
            177  C  5 ZZZ     0.00081     0.16804
            178  C  5 XXY     0.00126     0.07660
            179  C  5 XXZ     0.00087     0.07834
            180  C  5 YYX     0.00079     0.06892
            181  C  5 YYZ     0.00136     0.06678
            182  C  5 ZZX     0.00000     0.06969
            183  C  5 ZZY     0.00000     0.06662
            184  C  5 XYZ     0.00000     0.00291
            185  C  6  S      1.95555     1.55591
            186  C  6  S      0.82758     0.43301
            187  C  6  S      0.16185     0.27896
            188  C  6  S      0.32326     0.14935
            189  C  6  X      0.30220     0.22959
            190  C  6  Y      0.25846     0.20549
            191  C  6  Z      0.29914     0.22927
            192  C  6  X      0.54633     0.28028
            193  C  6  Y      0.49818     0.26523
            194  C  6  Z      0.54571     0.28020
            195  C  6  X      0.20467     0.20641
            196  C  6  Y      0.10936     0.17135
            197  C  6  Z      0.24112     0.21182
            198  C  6 XX      0.00568     0.08725
            199  C  6 YY      0.00609     0.09036
            200  C  6 ZZ      0.00350     0.08680
            201  C  6 XY      0.00433     0.00315
            202  C  6 XZ      0.00267     0.00456
            203  C  6 YZ      0.00000     0.00253
            204  C  6 XX      0.01057     0.08905
            205  C  6 YY      0.01509     0.10408
            206  C  6 ZZ      0.01005     0.08715
            207  C  6 XY      0.00853     0.02195
            208  C  6 XZ      0.00646     0.01974
            209  C  6 YZ      0.00000     0.01289
            210  C  6 XXX     0.00088     0.16327
            211  C  6 YYY     0.00095     0.16860
            212  C  6 ZZZ     0.00060     0.16637
            213  C  6 XXY     0.00140     0.06993
            214  C  6 XXZ     0.00094     0.07587
            215  C  6 YYX     0.00050     0.07865
            216  C  6 YYZ     0.00146     0.07312
            217  C  6 ZZX     0.00000     0.07443
            218  C  6 ZZY     0.00000     0.06361
            219  C  6 XYZ     0.00000     0.00266
            220  H  7  S      0.25297     0.19510
            221  H  7  S      0.45293     0.24492
            222  H  7  S      0.06195     0.11993
            223  H  7  X      0.00159     0.00205
            224  H  7  Y      0.00750     0.01106
            225  H  7  Z      0.00171     0.00219
            226  H  7  X      0.01040     0.02842
            227  H  7  Y      0.00520     0.04780
            228  H  7  Z      0.00878     0.02966
            229  H  7 XX      0.00032     0.06920
            230  H  7 YY      0.00065     0.11693
            231  H  7 ZZ      0.00100     0.06979
            232  H  7 XY      0.00009     0.00484
            233  H  7 XZ      0.00084     0.00015
            234  H  7 YZ      0.00000     0.00513
            235  H  8  S      0.24769     0.19064
            236  H  8  S      0.44986     0.24013
            237  H  8  S      0.04883     0.11503
            238  H  8  X      0.00161     0.00210
            239  H  8  Y      0.00185     0.00257
            240  H  8  Z      0.00733     0.01059
            241  H  8  X      0.00971     0.02892
            242  H  8  Y      0.00789     0.02902
            243  H  8  Z      0.00642     0.04775
            244  H  8 XX      0.00092     0.06803
            245  H  8 YY      0.00012     0.07041
            246  H  8 ZZ      0.00010     0.11240
            247  H  8 XY      0.00094     0.00020
            248  H  8 XZ      0.00080     0.00489
            249  H  8 YZ      0.00000     0.00540
            250  H  9  S      0.25298     0.18740
            251  H  9  S      0.45291     0.24288
            252  H  9  S      0.06190     0.12027
            253  H  9  X      0.00587     0.00775
            254  H  9  Y      0.00249     0.00354
            255  H  9  Z      0.00244     0.00342
            256  H  9  X      0.01001     0.04402
            257  H  9  Y      0.00709     0.03117
            258  H  9  Z      0.00728     0.03203
            259  H  9 XX      0.00048     0.09963
            260  H  9 YY      0.00090     0.07527
            261  H  9 ZZ      0.00064     0.07461
            262  H  9 XY      0.00065     0.00524
            263  H  9 XZ      0.00025     0.00528
            264  H  9 YZ      0.00000     0.00167
            265  H 10  S      0.25297     0.18673
            266  H 10  S      0.45291     0.24266
            267  H 10  S      0.06190     0.12025
            268  H 10  X      0.00562     0.00742
            269  H 10  Y      0.00246     0.00346
            270  H 10  Z      0.00271     0.00380
            271  H 10  X      0.01041     0.04345
            272  H 10  Y      0.00713     0.03106
            273  H 10  Z      0.00684     0.03280
            274  H 10 XX      0.00053     0.09768
            275  H 10 YY      0.00087     0.07464
            276  H 10 ZZ      0.00061     0.07673
            277  H 10 XY      0.00062     0.00495
            278  H 10 XZ      0.00028     0.00536
            279  H 10 YZ      0.00000     0.00195
            280  H 11  S      0.24769     0.19068
            281  H 11  S      0.44986     0.24009
            282  H 11  S      0.04883     0.11500
            283  H 11  X      0.00164     0.00219
            284  H 11  Y      0.00185     0.00256
            285  H 11  Z      0.00730     0.01052
            286  H 11  X      0.01008     0.02905
            287  H 11  Y      0.00790     0.02902
            288  H 11  Z      0.00604     0.04765
            289  H 11 XX      0.00089     0.06824
            290  H 11 YY      0.00013     0.07043
            291  H 11 ZZ      0.00010     0.11224
            292  H 11 XY      0.00095     0.00022
            293  H 11 XZ      0.00080     0.00492
            294  H 11 YZ      0.00000     0.00537
            295  H 12  S      0.25297     0.19510
            296  H 12  S      0.45293     0.24493
            297  H 12  S      0.06196     0.11992
            298  H 12  X      0.00158     0.00204
            299  H 12  Y      0.00750     0.01107
            300  H 12  Z      0.00172     0.00219
            301  H 12  X      0.01048     0.02851
            302  H 12  Y      0.00524     0.04785
            303  H 12  Z      0.00865     0.02955
            304  H 12 XX      0.00033     0.06923
            305  H 12 YY      0.00065     0.11693
            306  H 12 ZZ      0.00101     0.06976
            307  H 12 XY      0.00009     0.00482
            308  H 12 XZ      0.00083     0.00014
            309  H 12 YZ      0.00000     0.00514
            310  H 13  S      0.25297     0.18704
            311  H 13  S      0.45293     0.24219
            312  H 13  S      0.06193     0.11985
            313  H 13  X      0.00543     0.00694
            314  H 13  Y      0.00260     0.00393
            315  H 13  Z      0.00277     0.00393
            316  H 13  X      0.00467     0.04121
            317  H 13  Y      0.01271     0.03318
            318  H 13  Z      0.00701     0.03261
            319  H 13 XX      0.00052     0.09606
            320  H 13 YY      0.00073     0.07601
            321  H 13 ZZ      0.00072     0.07714
            322  H 13 XY      0.00061     0.00484
            323  H 13 XZ      0.00033     0.00527
            324  H 13 YZ      0.00000     0.00212
            325  H 14  S      0.25297     0.18782
            326  H 14  S      0.45292     0.24248
            327  H 14  S      0.06190     0.11987
            328  H 14  X      0.00567     0.00729
            329  H 14  Y      0.00263     0.00403
            330  H 14  Z      0.00249     0.00355
            331  H 14  X      0.00434     0.04198
            332  H 14  Y      0.01271     0.03333
            333  H 14  Z      0.00733     0.03168
            334  H 14 XX      0.00048     0.09812
            335  H 14 YY      0.00076     0.07671
            336  H 14 ZZ      0.00075     0.07494
            337  H 14 XY      0.00062     0.00515
            338  H 14 XZ      0.00030     0.00520
            339  H 14 YZ      0.00000     0.00184
            340  H 15  S      0.24769     0.19087
            341  H 15  S      0.44987     0.24022
            342  H 15  S      0.04883     0.11505
            343  H 15  X      0.00163     0.00210
            344  H 15  Y      0.00200     0.00309
            345  H 15  Z      0.00715     0.01018
            346  H 15  X      0.00805     0.02811
            347  H 15  Y      0.01153     0.03101
            348  H 15  Z      0.00444     0.04728
            349  H 15 XX      0.00086     0.06740
            350  H 15 YY      0.00020     0.07252
            351  H 15 ZZ      0.00011     0.11137
            352  H 15 XY      0.00077     0.00029
            353  H 15 XZ      0.00094     0.00503
            354  H 15 YZ      0.00000     0.00530

          ----- MULLIKEN ATOMIC OVERLAP POPULATIONS -----
          (OFF-DIAGONAL ELEMENTS NEED TO BE MULTIPLIED BY 2)

             1           2           3           4           5

    1    8.7117742
    2   -0.0039043  13.2364123
    3    0.0827331   0.2529766   8.3088918
    4   -0.0000235   0.3388787  -0.0199964   5.0098801
    5   -0.0000232   0.3388761  -0.0199943  -0.0309229   5.0099020
    6   -0.0000251   0.3388894  -0.0200117  -0.0308473  -0.0308569
    7    0.0002671  -0.0162705   0.0005373   0.3658076  -0.0025161
    8    0.0004660  -0.0122283   0.0012686   0.3549942  -0.0000612
    9    0.0002659  -0.0162944   0.0005339   0.3658447   0.0023683
   10    0.0002655  -0.0162952   0.0005334   0.0023682   0.3658423
   11    0.0004658  -0.0122247   0.0012685  -0.0000587   0.3549937
   12    0.0002674  -0.0162719   0.0005380  -0.0025188   0.3658076
   13    0.0002675  -0.0162738   0.0005369   0.0023651  -0.0025169
   14    0.0002663  -0.0162770   0.0005346  -0.0025125   0.0023649
   15    0.0004668  -0.0122402   0.0012685  -0.0000591  -0.0000556

             6           7           8           9          10

    6    5.0097287
    7    0.0023650   0.4852274
    8   -0.0000590  -0.0121332   0.4644156
    9   -0.0025121  -0.0179121  -0.0121279   0.4851488
   10   -0.0025081  -0.0000082  -0.0000085  -0.0000732   0.4851432
   11   -0.0000629  -0.0001339  -0.0000941  -0.0000084  -0.0121281
   12    0.0023654   0.0007881  -0.0001334  -0.0000084  -0.0179125
   13    0.3658214  -0.0000730  -0.0000090  -0.0000082   0.0007902
   14    0.3658339  -0.0000082  -0.0001321   0.0007912  -0.0000079
   15    0.3549975  -0.0000087  -0.0000978  -0.0001335  -0.0001350

            11          12          13          14          15

   11    0.4644116
   12   -0.0121321   0.4852386
   13   -0.0001308  -0.0000086   0.4851940
   14   -0.0000092  -0.0000730  -0.0179138   0.4851509
   15   -0.0000970  -0.0000083  -0.0121299  -0.0121318   0.4644226

          TOTAL MULLIKEN AND LOWDIN ATOMIC POPULATIONS
       ATOM         MULL.POP.    CHARGE          LOW.POP.     CHARGE
    1 LA            8.793530    2.206470         8.932076    2.067924
    2 P            14.367753    0.632247        14.260861    0.739139
    3 O             8.591619   -0.591619         8.290811   -0.290811
    4 C             6.353199   -0.353199         6.029253   -0.029253
    5 C             6.353208   -0.353208         6.030312   -0.030312
    6 C             6.353118   -0.353118         6.042902   -0.042902
    7 H             0.805929    0.194071         0.947155    0.052845
    8 H             0.784060    0.215940         0.928074    0.071926
    9 H             0.805875    0.194125         0.934182    0.065818
   10 H             0.805866    0.194134         0.932913    0.067087
   11 H             0.784060    0.215940         0.928170    0.071830
   12 H             0.805938    0.194062         0.947165    0.052835
   13 H             0.805911    0.194089         0.932328    0.067672
   14 H             0.805876    0.194124         0.933981    0.066019
   15 H             0.784059    0.215941         0.929816    0.070184

          MULLIKEN SPHERICAL HARMONIC POPULATIONS
       ATOM           S       P       D      F      G      H      I    TOTAL
    1 LA            2.02    6.59    0.18   0.00   0.00   0.00   0.00    8.79
    2 P             5.34    8.40    0.56   0.07   0.00   0.00   0.00   14.37
    3 O             3.35    5.20    0.03   0.00   0.00   0.00   0.00    8.59
    4 C             3.27    3.01    0.07   0.01   0.00   0.00   0.00    6.35
    5 C             3.27    3.01    0.07   0.01   0.00   0.00   0.00    6.35
    6 C             3.27    3.01    0.07   0.01   0.00   0.00   0.00    6.35
    7 H             0.77    0.04    0.00   0.00   0.00   0.00   0.00    0.81
    8 H             0.75    0.03    0.00   0.00   0.00   0.00   0.00    0.78
    9 H             0.77    0.04    0.00   0.00   0.00   0.00   0.00    0.81
   10 H             0.77    0.04    0.00   0.00   0.00   0.00   0.00    0.81
   11 H             0.75    0.03    0.00   0.00   0.00   0.00   0.00    0.78
   12 H             0.77    0.04    0.00   0.00   0.00   0.00   0.00    0.81
   13 H             0.77    0.04    0.00   0.00   0.00   0.00   0.00    0.81
   14 H             0.77    0.04    0.00   0.00   0.00   0.00   0.00    0.81
   15 H             0.75    0.03    0.00   0.00   0.00   0.00   0.00    0.78

          -------------------------------
          BOND ORDER AND VALENCE ANALYSIS     BOND ORDER THRESHOLD=0.050
          -------------------------------

                   BOND                       BOND                       BOND
  ATOM PAIR DIST  ORDER      ATOM PAIR DIST  ORDER      ATOM PAIR DIST  ORDER
    1   3  2.550  0.319        2   3  1.789  0.795        2   4  1.774  1.006
    2   5  1.774  1.006        2   6  1.774  1.006        4   7  1.089  0.879
    4   8  1.095  0.857        4   9  1.089  0.879        5  10  1.089  0.879
    5  11  1.095  0.857        5  12  1.089  0.879        6  13  1.089  0.879
    6  14  1.089  0.879        6  15  1.095  0.857

                       TOTAL       BONDED        FREE
      ATOM            VALENCE     VALENCE     VALENCE
    1 LA               -1.031       0.352      -1.382
    2 P                 4.616       4.182       0.435
    3 O                 2.308       1.163       1.146
    4 C                 3.930       3.636       0.294
    5 C                 3.930       3.636       0.294
    6 C                 3.930       3.636       0.294
    7 H                 0.978       0.927       0.051
    8 H                 0.969       0.918       0.051
    9 H                 0.978       0.927       0.051
   10 H                 0.978       0.927       0.051
   11 H                 0.969       0.918       0.051
   12 H                 0.978       0.927       0.051
   13 H                 0.978       0.927       0.051
   14 H                 0.978       0.927       0.051
   15 H                 0.969       0.918       0.051

          ---------------------
          ELECTROSTATIC MOMENTS
          ---------------------

 POINT   1           X           Y           Z (BOHR)    CHARGE
                -0.217317    1.440881   -4.519336        3.00 (A.U.)
         DX          DY          DZ         /D/  (DEBYE)
    -0.024374    0.152522   -0.682125    0.699394
 ...... END OF PROPERTY EVALUATION ......
 CPU     0: STEP CPU TIME=     0.19 TOTAL CPU TIME=     1973.4 (   32.9 MIN)
 TOTAL WALL CLOCK TIME=     2004.4 SECONDS, CPU UTILIZATION IS  98.46%
  $VIB   
          IVIB=   0 IATOM=   0 ICOORD=   0 E=     -565.5768260252
 -1.741607426E-07 8.252867433E-07 1.913015530E-07-1.014484102E-05-7.790002029E-05
 -5.921329758E-05 8.281663662E-07 9.074851635E-06-1.452971124E-05 4.010335842E-05
  5.279903269E-05 3.036309975E-05-3.719175681E-05 4.428300424E-05 3.833821859E-05
  7.146502759E-06-1.143410877E-05-1.451867734E-05-3.730508230E-06 3.878493466E-06
  9.126738247E-06-8.946141746E-06 1.419968760E-05 1.235048342E-06 1.217872987E-05
 -2.247984875E-05-4.646036513E-06-1.159855699E-05-2.208660692E-05-3.442061226E-06
  8.630193988E-06 1.462794506E-05 8.094415675E-07 3.051576650E-06 3.791487379E-06
  6.597508168E-06 4.232125565E-06-1.803582742E-07 5.688463813E-06-6.476788134E-06
  2.419125120E-06 9.676236875E-06 2.092100052E-06-1.181797093E-05-5.676273008E-06
 -2.437396894E-02 1.525219578E-01-6.821250571E-01
 ......END OF GEOMETRY SEARCH......
 CPU     0: STEP CPU TIME=     0.00 TOTAL CPU TIME=     1973.4 (   32.9 MIN)
 TOTAL WALL CLOCK TIME=     2004.4 SECONDS, CPU UTILIZATION IS  98.45%
               2991967  WORDS OF DYNAMIC MEMORY USED
 EXECUTION OF GAMESS TERMINATED NORMALLY Wed Jun  8 23:59:24 2016
 DDI: 44487344 bytes (42.4 MB / 5 MWords) used by master data server.

 ----------------------------------------
 CPU timing information for all processes
 ========================================
 0: 1970.535 + 3.08 = 1973.543
 1: 1970.317 + 2.834 = 1973.152
 2: 1971.23 + 2.988 = 1974.11
 3: 1970.860 + 2.827 = 1973.687
 4: 1971.500 + 2.939 = 1974.439
 5: 1971.246 + 2.897 = 1974.143
 6: 1973.934 + 3.05 = 1976.940
 7: 1970.641 + 2.927 = 1973.568
 8: 1973.507 + 2.951 = 1976.459
 9: 1973.584 + 2.874 = 1976.459
 10: 1973.803 + 2.892 = 1976.696
 11: 1972.93 + 2.974 = 1975.67
 12: 1973.462 + 3.47 = 1976.510
 13: 1971.683 + 2.940 = 1974.623
 14: 1972.696 + 2.845 = 1975.541
 15: 1972.133 + 2.233 = 1974.366
 16: 0.08 + 0.127 = 0.136
 17: 0.10 + 0.126 = 0.137
 18: 0.15 + 0.118 = 0.134
 19: 0.19 + 0.108 = 0.128
 20: 0.19 + 0.112 = 0.132
 21: 0.14 + 0.122 = 0.137
 22: 0.13 + 0.119 = 0.133
 23: 0.13 + 0.110 = 0.124
 24: 0.12 + 0.112 = 0.125
 25: 0.11 + 0.124 = 0.136
 26: 0.15 + 0.117 = 0.133
 27: 0.12 + 0.116 = 0.129
 28: 0.08 + 0.121 = 0.130
 29: 0.10 + 0.123 = 0.134
 30: 0.10 + 0.117 = 0.128
 31: 0.08 + 0.120 = 0.129
 ----------------------------------------
unset echo
----- accounting info -----
Files used on the master node node222 were:
-rw-r--r-- 1 fzahari quantum     1997 Jun  8 23:25 /local/scratch/fzahari/196567.share/bnd_var-255.F05
-rw-r--r-- 1 fzahari quantum 17178000 Jun  8 23:59 /local/scratch/fzahari/196567.share/bnd_var-255.F10
-rw-r--r-- 1 fzahari quantum        8 Jun  8 23:25 /local/scratch/fzahari/196567.share/bnd_var-255.nodes.mpd
ls: No match.
ls: No match.
ls: No match.
Wed Jun  8 23:59:27 CDT 2016
31553.859u 52.192s 33:28.88 1573.3%	0+0k 104+308080io 0pf+0w
