----- GAMESS execution script 'rungms' -----
This job is running on host node222
under operating system Linux at Wed Jun 8 23:59:30 CDT 2016
PBS has assigned the following compute nodes to this run:
node222
Available scratch disk space (Kbyte units) at beginning of the job is
Filesystem           1K-blocks      Used Available Use% Mounted on
/dev/sda7            2670838024    213284 2534953956   1% /local
GAMESS temporary binary files will be written to /local/scratch/fzahari/196570.share
GAMESS supplementary output files will be written to /work1/quantum/fzahari/scr
Copying input file bnd_var-270.inp to your run's scratch directory...
cp bnd_var-270.inp /local/scratch/fzahari/196570.share/bnd_var-270.F05
unset echo
setenv I_MPI_WAIT_MODE enable
setenv I_MPI_PIN disable
setenv I_MPI_DEBUG 0
setenv I_MPI_STATS 0
setenv I_MPI_FABRICS dapl
setenv I_MPI_DAT_LIBRARY libdat2.so
unset echo
MPI kickoff will run GAMESS on 16 cores in 1 nodes.
The binary to be executed is /home/mschmidt/gamess/gamess.132.x
MPI will run 16 compute processes and 16 data servers,
    placing 16 of each process type onto each node.
The scratch disk space on each node is /local/scratch/fzahari/196570.share, with free space
Filesystem           1K-blocks      Used Available Use% Mounted on
/dev/sda7            2670838024    213308 2534953932   1% /local
setenv I_MPI_HYDRA_ENV all
setenv I_MPI_PERHOST 32
unset echo
mpiexec.hydra -f /local/scratch/fzahari/196570.share/bnd_var-270.processes.mpd -n 32 /home/mschmidt/gamess/gamess.132.x
          ******************************************************
          *         GAMESS VERSION =  5 DEC 2014 (R1)          *
          *             FROM IOWA STATE UNIVERSITY             *
          * M.W.SCHMIDT, K.K.BALDRIDGE, J.A.BOATZ, S.T.ELBERT, *
          *   M.S.GORDON, J.H.JENSEN, S.KOSEKI, N.MATSUNAGA,   *
          *          K.A.NGUYEN, S.J.SU, T.L.WINDUS,           *
          *       TOGETHER WITH M.DUPUIS, J.A.MONTGOMERY       *
          *         J.COMPUT.CHEM.  14, 1347-1363(1993)        *
          **************** 64 BIT INTEL VERSION ****************

  SINCE 1993, STUDENTS AND POSTDOCS WORKING AT IOWA STATE UNIVERSITY
  AND ALSO IN THEIR VARIOUS JOBS AFTER LEAVING ISU HAVE MADE IMPORTANT
  CONTRIBUTIONS TO THE CODE:
     IVANA ADAMOVIC, CHRISTINE AIKENS, YURI ALEXEEV, POOJA ARORA,
     ANDREY ASADCHEV, ROB BELL, PRADIPTA BANDYOPADHYAY, JONATHAN BENTZ,
     BRETT BODE, KURT BRORSEN, CALEB CARLIN, GALINA CHABAN, WEI CHEN,
     CHEOL HO CHOI, PAUL DAY, ALBERT DEFUSCO, NUWAN DESILVA, TIM DUDLEY,
     DMITRI FEDOROV, GRAHAM FLETCHER, MARK FREITAG, KURT GLAESEMANN,
     DAN KEMP, GRANT MERRILL, NORIYUKI MINEZAWA, JONATHAN MULLIN,
     TAKESHI NAGATA, SEAN NEDD, HEATHER NETZLOFF, BOSILJKA NJEGIC, RYAN OLSON,
     MIKE PAK, SPENCER PRUITT, LUKE ROSKOP, JIM SHOEMAKER, LYUDMILA SLIPCHENKO,
     TONY SMITH, SAROM SOK, JIE SONG, TETSUYA TAKETSUGU, SIMON WEBB,
     PENG XU, SOOHAENG YOO, FEDERICO ZAHARIEV

  ADDITIONAL CODE HAS BEEN PROVIDED BY COLLABORATORS IN OTHER GROUPS:
     IOWA STATE UNIVERSITY:
          JOE IVANIC, AARON WEST, LAIMUTIS BYTAUTAS, KLAUS RUEDENBERG
     UNIVERSITY OF TOKYO: KIMIHIKO HIRAO, TAKAHITO NAKAJIMA,
          TAKAO TSUNEDA, MUNEAKI KAMIYA, SUSUMU YANAGISAWA,
          KIYOSHI YAGI, MAHITO CHIBA, SEIKEN TOKURA, NAOAKI KAWAKAMI
     UNIVERSITY OF AARHUS: FRANK JENSEN
     UNIVERSITY OF IOWA: VISVALDAS KAIRYS, HUI LI
     NATIONAL INST. OF STANDARDS AND TECHNOLOGY: WALT STEVENS, DAVID GARMER
     UNIVERSITY OF PISA: BENEDETTA MENNUCCI, JACOPO TOMASI
     UNIVERSITY OF MEMPHIS: HENRY KURTZ, PRAKASHAN KORAMBATH
     UNIVERSITY OF ALBERTA: TOBY ZENG, MARIUSZ KLOBUKOWSKI
     UNIVERSITY OF NEW ENGLAND: MARK SPACKMAN
     MIE UNIVERSITY: HIROAKI UMEDA
     NAT. INST. OF ADVANCED INDUSTRIAL SCIENCE AND TECHNOLOGY: KAZUO KITAURA
     MICHIGAN STATE UNIVERSITY:
          KAROL KOWALSKI, MARTA WLOCH, JEFFREY GOUR, JESSE LUTZ,
          WEI LI, PIOTR PIECUCH
     UNIVERSITY OF SILESIA: MONIKA MUSIAL, STANISLAW KUCHARSKI
     FACULTES UNIVERSITAIRES NOTRE-DAME DE LA PAIX:
          OLIVIER QUINET, BENOIT CHAMPAGNE
     UNIVERSITY OF CALIFORNIA - SANTA BARBARA: BERNARD KIRTMAN
     INSTITUTE FOR MOLECULAR SCIENCE:
          KAZUYA ISHIMURA, MICHIO KATOUDA, AND SHIGERU NAGASE
     UNIVERSITY OF NOTRE DAME: ANNA POMOGAEVA, DAN CHIPMAN
     KYUSHU UNIVERSITY:
          HARUYUKI NAKANO,
          FENG LONG GU, JACEK KORCHOWIEC, MARCIN MAKOWSKI, AND YURIKO AOKI,
          HIROTOSHI MORI AND EISAKU MIYOSHI
     PENNSYLVANIA STATE UNIVERSITY:
          TZVETELIN IORDANOV, CHET SWALINA, JONATHAN SKONE,
          SHARON HAMMES-SCHIFFER
     WASEDA UNIVERSITY:
          MASATO KOBAYASHI, TOMOKO AKAMA, TSUGUKI TOUMA,
          TAKESHI YOSHIKAWA, YASUHIRO IKABATA, HIROMI NAKAI
     NANJING UNIVERSITY: SHUHUA LI
     UNIVERSITY OF NEBRASKA:
          PEIFENG SU, DEJUN SI, NANDUN THELLAMUREGE, YALI WANG, HUI LI
     UNIVERSITY OF ZURICH: ROBERTO PEVERATI, KIM BALDRIDGE
     N. COPERNICUS UNIVERSITY AND JACKSON STATE UNIVERSITY:
          MARIA BARYSZ
     UNIVERSITY OF COPENHAGEN: CASPER STEINMANN
     TOKYO INSTITUTE OF TECHNOLOGY: HIROYA NAKATA
     NAGOYA UNIVERSITY: YOSHIO NISHIMOTO, STEPHAN IRLE


 PARALLEL VERSION RUNNING ON       16 PROCESSORS IN        1 NODES.

 EXECUTION OF GAMESS BEGUN Wed Jun  8 23:59:31 2016

            ECHO OF THE FIRST FEW INPUT CARDS -
 INPUT CARD> $ZMAT DLC=.T. AUTO=.T. $END                                                    
 INPUT CARD> $ZMAT IFZMAT(1)=1, 1 , 3  FVALUE(1)= 2.7 $END                                  
 INPUT CARD> $CONTRL COORD=UNIQUE NZVAR= 39 $END                                            
 INPUT CARD> $CONTRL ICHARG=+3 MULT=1                                                       
 INPUT CARD>         MPLEVL=2                                                               
 INPUT CARD>         SCFTYP=RHF                                                             
 INPUT CARD>         MAXIT=200 ISPHER=1 ICUT=11                                             
 INPUT CARD>         RUNTYP=OPTIMIZE                                                        
 INPUT CARD>         PP=READ                                                                
 INPUT CARD>         $END                                                                   
 INPUT CARD> $SCF    DIRSCF=.T. FDIFF=.F. $END                                              
 INPUT CARD> $TRANS  DIRTRF=.T. $END                                                        
 INPUT CARD> $SYSTEM MWORDS=300 MEMDDI=300 $END                                             
 INPUT CARD> $GUESS  GUESS=HUCKEL $END                                                      
 INPUT CARD> $BASIS  BASNAM(1)=METAL,                                                       
 INPUT CARD>                   LIGP,                                                        
 INPUT CARD>                   LIGO,                                                        
 INPUT CARD>                   LIGC,                                                        
 INPUT CARD>                   LIGC,                                                        
 INPUT CARD>                   LIGC,                                                        
 INPUT CARD>                   LIGH,                                                        
 INPUT CARD>                   LIGH,                                                        
 INPUT CARD>                   LIGH,                                                        
 INPUT CARD>                   LIGH,                                                        
 INPUT CARD>                   LIGH,                                                        
 INPUT CARD>                   LIGH,                                                        
 INPUT CARD>                   LIGH,                                                        
 INPUT CARD>                   LIGH,                                                        
 INPUT CARD>                   LIGH                                                         
 INPUT CARD> $END                                                                           
 INPUT CARD> $DATA                                                                          
 INPUT CARD>                                                                                
 INPUT CARD> C1                                                                             
 INPUT CARD> La 57.0 -0.1739353441 1.134168269 -4.0490164368                                
 INPUT CARD> P 15.0 -0.0194397016834 0.159532238437 0.297028301208                          
 INPUT CARD> O 8.0 -0.0812522246834 0.543773158337 -1.41598710679                           
 INPUT CARD> C 6.0 -1.46893159778 0.871988002237 1.03270517661                              
 INPUT CARD> C 6.0 1.47308725412 0.882276871737 0.929439488808                              
 INPUT CARD> C 6.0 -0.00850972228343 -1.61074780946 0.423791054408                          
 INPUT CARD> H 1.0 -1.47068026458 1.95482107324 0.919333778608                              
 INPUT CARD> H 1.0 -1.43219900148 0.635785224637 2.10059770051                              
 INPUT CARD> H 1.0 -2.37332618658 0.434282868237 0.613554661608                             
 INPUT CARD> H 1.0 2.34915574272 0.450309769537 0.448609207008                              
 INPUT CARD> H 1.0 1.51227305342 0.645715000637 1.99718251271                               
 INPUT CARD> H 1.0 1.45985011292 1.96503054654 0.816580486108                               
 INPUT CARD> H 1.0 0.873680777417 -2.02993915466 -0.0572762510923                           
 INPUT CARD> H 1.0 -0.919891223983 -2.03679429746 0.00759184970769                          
 INPUT CARD> H 1.0 0.0310004664166 -1.85209463396 1.49036120831                             
 INPUT CARD> $END                                                                           
 INPUT CARD>!                                                                               
  300000000 WORDS OF MEMORY AVAILABLE

     BASIS OPTIONS
     -------------
     GBASIS=             IGAUSS=       0      POLAR=NONE    
     NDFUNC=       0     NFFUNC=       0     DIFFSP=       F
     NPFUNC=       0      DIFFS=       F     BASNAM=METAL   

 USING BASNAM FOR ATOM CUSTOMIZED BASIS CONSTRUCTION
     ----------------
     ATOM  BASIS NAME
     ----------------
       1   METAL   
       2   LIGP    
       3   LIGO    
       4   LIGC    
       5   LIGC    
       6   LIGC    
       7   LIGH    
       8   LIGH    
       9   LIGH    
      10   LIGH    
      11   LIGH    
      12   LIGH    
      13   LIGH    
      14   LIGH    
      15   LIGH    
 NOW LOCATING ALL   15 BASIS SETS IN YOUR INPUT FILE...
 FOUND BASIS SET  $METAL 
  SBKJC                        
                               
  $END                         
 FOUND BASIS SET  $LIGP  
  CCT                          
                               
  $END                         
 FOUND BASIS SET  $LIGO  
  CCT                          
                               
  $END                         
 FOUND BASIS SET  $LIGC  
  CCT                          
                               
  $END                         
 FOUND BASIS SET  $LIGH  
  CCT                          
                               
  $END                         
    5 UNIQUE ATOM CUSTOMIZED BASIS SETS WERE FOUND.

     SEARCHING FOR $MCP
     $MCP GROUP NOT FOUND


     RUN TITLE
     ---------
                                                                                 

 THE POINT GROUP OF THE MOLECULE IS C1      
 THE ORDER OF THE PRINCIPAL AXIS IS     0

 ATOM      ATOMIC                      COORDINATES (BOHR)
           CHARGE         X                   Y                   Z
 LA         57.0    -0.3286901399        2.1432672524       -7.6515315853
 P          15.0    -0.0367357095        0.3014722169        0.5613020999
 O           8.0    -0.1535444405        1.0275822687       -2.6758276340
 C           6.0    -2.7758782145        1.6478183888        1.9515298099
 C           6.0     2.7837312663        1.6672615329        1.7563859560
 C           6.0    -0.0160810433       -3.0438719952        0.8008489689
 H           1.0    -2.7791827156        3.6940761834        1.7372889328
 H           1.0    -2.7064636727        1.2014598616        3.9695540644
 H           1.0    -4.4849361721        0.8206756221        1.1594501889
 H           1.0     4.4392606562        0.8509620740        0.8477484768
 H           1.0     2.8577816896        1.2202244174        3.7741276965
 H           1.0     2.7587166966        3.7133692905        1.5431133657
 H           1.0     1.6510172701       -3.8360287741       -0.1082364202
 H           1.0    -1.7383423518       -3.8489831156        0.0143465157
 H           1.0     0.0585823870       -3.4999513615        2.8163743064

          INTERNUCLEAR DISTANCES (ANGS.)
          ------------------------------

                1 LA         2 P          3 O          4 C          5 C     

   1 LA      0.0000000    4.4566679    2.7000000 *  5.2506808    5.2498720  
   2 P       4.4566679    0.0000000    1.7566683 *  1.7747790 *  1.7748072 *
   3 O       2.7000000 *  1.7566683 *  0.0000000    2.8336325 *  2.8340046 *
   4 C       5.2506808    1.7747790 *  2.8336325 *  0.0000000    2.9438486 *
   5 C       5.2498720    1.7748072 *  2.8340046 *  2.9438486 *  0.0000000  
   6 C       5.2505178    1.7748464 *  2.8340846 *  2.9440764 *  2.9438040 *
   7 H       5.1999541    2.3909047 *  3.0619096    1.0887532 *  3.1330848  
   8 H       6.2967743    2.3399932 *  3.7682744    1.0943196 *  3.1421422  
   9 H       5.2025695    2.3909116 *  3.0634345    1.0886701 *  3.8852771  
  10 H       5.2021426    2.3911865 *  3.0646921    3.8854564    1.0887099 *
  11 H       6.2959040    2.3394534 *  3.7682147    3.1414960    1.0943364 *
  12 H       5.1993865    2.3912459 *  3.0625687    3.1335625    1.0887001 *
  13 H       5.2002947    2.3910209 *  3.0630030    3.8854953    3.1327142  
  14 H       5.2026459    2.3913253 *  3.0641835    3.1326214    3.8855020  
  15 H       6.2963854    2.3394936 *  3.7682415    3.1432263    3.1418203  

                6 C          7 H          8 H          9 H         10 H     

   1 LA      5.2505178    5.1999541    6.2967743    5.2025695    5.2021426  
   2 P       1.7748464 *  2.3909047 *  2.3399932 *  2.3909116 *  2.3911865 *
   3 O       2.8340846 *  3.0619096    3.7682744    3.0634345    3.0646921  
   4 C       2.9440764 *  1.0887532 *  1.0943196 *  1.0886701 *  3.8854564  
   5 C       2.9438040 *  3.1330848    3.1421422    3.8852771    1.0887099 *
   6 C       0.0000000    3.8854584    3.1441187    3.1321746    3.1316387  
   7 H       3.8854584    0.0000000    1.7710790 *  1.7945214 *  4.1323459  
   8 H       3.1441187    1.7710790 *  0.0000000    1.7713330 *  4.1306308  
   9 H       3.1321746    1.7945214 *  1.7713330 *  0.0000000    4.7253888  
  10 H       3.1316387    4.1323459    4.1306308    4.7253888    0.0000000  
  11 H       3.1432412    3.4312574    2.9463043 *  4.1300134    1.7710548 *
  12 H       3.8854285    2.9323490 *  3.4321337    4.1325112    1.7946159 *
  13 H       1.0887641 *  4.7252629    4.1327458    4.1310360    2.9299456 *
  14 H       1.0887395 *  4.1312995    3.4330473    2.9301683 *  4.1312045  
  15 H       1.0942492 *  4.1320364    2.9500657 *  3.4317777    3.4293086  

               11 H         12 H         13 H         14 H         15 H     

   1 LA      6.2959040    5.1993865    5.2002947    5.2026459    6.2963854  
   2 P       2.3394534 *  2.3912459 *  2.3910209 *  2.3913253 *  2.3394936 *
   3 O       3.7682147    3.0625687    3.0630030    3.0641835    3.7682415  
   4 C       3.1414960    3.1335625    3.8854953    3.1326214    3.1432263  
   5 C       1.0943364 *  1.0887001 *  3.1327142    3.8855020    3.1418203  
   6 C       3.1432412    3.8854285    1.0887641 *  1.0887395 *  1.0942492 *
   7 H       3.4312574    2.9323490 *  4.7252629    4.1312995    4.1320364  
   8 H       2.9463043 *  3.4321337    4.1327458    3.4330473    2.9500657 *
   9 H       4.1300134    4.1325112    4.1310360    2.9301683 *  3.4317777  
  10 H       1.7710548 *  1.7946159 *  2.9299456 *  4.1312045    3.4293086  
  11 H       0.0000000    1.7712038 *  3.4333258    4.1315554    2.9478957 *
  12 H       1.7712038 *  0.0000000    4.1312229    4.7256993    4.1311060  
  13 H       3.4333258    4.1312229    0.0000000    1.7947578 *  1.7711354 *
  14 H       4.1315554    4.7256993    1.7947578 *  0.0000000    1.7711335 *
  15 H       2.9478957 *  4.1311060    1.7711354 *  1.7711335 *  0.0000000  

  * ... LESS THAN  3.000


     ATOMIC BASIS SET
     ----------------
 THE CONTRACTED PRIMITIVE FUNCTIONS HAVE BEEN UNNORMALIZED
 THE CONTRACTED BASIS FUNCTIONS ARE NOW NORMALIZED TO UNITY

  SHELL TYPE  PRIMITIVE        EXPONENT          CONTRACTION COEFFICIENT(S)

 LA        

      1   L       1             9.1730000   -0.054833023521   -0.009797991527
      1   L       2             3.1200000    0.676604290237    0.231261800020
      1   L       3             2.1040000   -1.034429443730   -0.601214480110
      1   L       4             1.3200000   -0.518907222591    0.195188831214
      1   L       5             0.4960000    1.631603699894    1.076136069429

      2   D       6             1.2380000   -0.053797021791
      2   D       7             0.6061000    0.380144153981
      2   D       8             0.2518000    0.720349291785

      3   D       9             0.0978700    1.000000000000

      4   L      10             0.6182000   -0.107095028128   -0.051868986063
      4   L      11             0.0454600    1.033448271434    1.008107729120

      5   L      12             0.0177500    1.000000000000    1.000000000000

      6   L      13             0.2004000    1.000000000000    1.000000000000

      7   D      14             0.0353600    1.000000000000

 P         

      8   S      15        312400.0000000    0.000057689641
      8   S      16         46800.0000000    0.000448246591
      8   S      17         10650.0000000    0.002349131061
      8   S      18          3018.0000000    0.009781571802
      8   S      19           986.8000000    0.034142936511
      8   S      20           357.4000000    0.100192955985
      8   S      21           139.6000000    0.234346168617
      8   S      22            57.6300000    0.382391849918
      8   S      23            24.6000000    0.318052941833
      8   S      24            10.1200000    0.070770999093
      8   S      25             4.2830000   -0.001817789630
      8   S      26             1.8050000    0.002161561737
      8   S      27             0.2782000    0.000432249354

      9   S      28        312400.0000000   -0.000016380204
      9   S      29         46800.0000000   -0.000127233535
      9   S      30         10650.0000000   -0.000668625166
      9   S      31          3018.0000000   -0.002795303744
      9   S      32           986.8000000   -0.009928227435
      9   S      33           357.4000000   -0.030244566456
      9   S      34           139.6000000   -0.077884705328
      9   S      35            57.6300000   -0.156724571545
      9   S      36            24.6000000   -0.198042753651
      9   S      37            10.1200000    0.037971251521
      9   S      38             4.2830000    0.552751544147
      9   S      39             1.8050000    0.542611452452
      9   S      40             0.2782000   -0.009675942874

     10   S      41        312400.0000000    0.000006865735
     10   S      42         46800.0000000    0.000053281983
     10   S      43         10650.0000000    0.000280421002
     10   S      44          3018.0000000    0.001170789768
     10   S      45           986.8000000    0.004173591138
     10   S      46           357.4000000    0.012720496749
     10   S      47           139.6000000    0.033152766352
     10   S      48            57.6300000    0.067671246836
     10   S      49            24.6000000    0.089831018862
     10   S      50            10.1200000   -0.020305232360
     10   S      51             4.2830000   -0.313280408979
     10   S      52             1.8050000   -0.563687905527
     10   S      53             0.2782000    1.117494073734

     11   S      54             0.6158000    1.000000000000

     12   S      55             0.1055000    1.000000000000

     13   P      56           504.9000000    0.002433660431
     13   P      57           119.4000000    0.019305559477
     13   P      58            37.9600000    0.088473106893
     13   P      59            13.9500000    0.254701981099
     13   P      60             5.4570000    0.440199242653
     13   P      61             2.1770000    0.383632006272
     13   P      62             0.2877000   -0.003946337074

     14   P      63           504.9000000   -0.000954298933
     14   P      64           119.4000000   -0.007664025747
     14   P      65            37.9600000   -0.035465925259
     14   P      66            13.9500000   -0.106164716437
     14   P      67             5.4570000   -0.187210586037
     14   P      68             2.1770000   -0.181495819791
     14   P      69             0.2877000    0.991672644618

     15   P      70             0.8010000    1.000000000000

     16   P      71             0.0971400    1.000000000000

     17   D      72             0.6480000    1.000000000000

     18   D      73             0.2180000    1.000000000000

     19   F      74             0.4520000    1.000000000000

     20   D      75             3.1200000    1.000000000000

 O         

     21   S      76         15330.0000000    0.000520198307
     21   S      77          2299.0000000    0.004023344781
     21   S      78           522.4000000    0.020729083329
     21   S      79           147.3000000    0.081082327080
     21   S      80            47.5500000    0.236226352118
     21   S      81            16.7600000    0.443518209420
     21   S      82             6.2070000    0.358670588689
     21   S      83             0.6882000   -0.008349797237

     22   S      84         15330.0000000   -0.000197236012
     22   S      85          2299.0000000   -0.001535010700
     22   S      86           522.4000000   -0.007951183914
     22   S      87           147.3000000   -0.032113452892
     22   S      88            47.5500000   -0.100269643049
     22   S      89            16.7600000   -0.234047111838
     22   S      90             6.2070000   -0.301410927756
     22   S      91             0.6882000    1.034919649508

     23   S      92             1.7520000    1.000000000000

     24   S      93             0.2384000    1.000000000000

     25   P      94            34.4600000    0.041163489568
     25   P      95             7.7490000    0.257762835858
     25   P      96             2.2800000    0.802419274427

     26   P      97             0.7156000    1.000000000000

     27   P      98             0.2140000    1.000000000000

     28   D      99             2.3140000    1.000000000000

     29   D     100             0.6450000    1.000000000000

     30   F     101             1.4280000    1.000000000000

 C         

     31   S     102          8236.0000000    0.000542430189
     31   S     103          1235.0000000    0.004196427901
     31   S     104           280.8000000    0.021540914108
     31   S     105            79.2700000    0.083614949614
     31   S     106            25.5900000    0.239871618922
     31   S     107             8.9970000    0.443751820060
     31   S     108             3.3190000    0.353579696469
     31   S     109             0.3643000   -0.009176366076

     32   S     110          8236.0000000   -0.000196392234
     32   S     111          1235.0000000   -0.001525950274
     32   S     112           280.8000000   -0.007890449028
     32   S     113            79.2700000   -0.031514870532
     32   S     114            25.5900000   -0.096910008320
     32   S     115             8.9970000   -0.220541526288
     32   S     116             3.3190000   -0.296069112937
     32   S     117             0.3643000    1.040503432950

     33   S     118             0.9059000    1.000000000000

     34   S     119             0.1285000    1.000000000000

     35   P     120            18.7100000    0.039426387165
     35   P     121             4.1330000    0.244088984924
     35   P     122             1.2000000    0.815492008943

     36   P     123             0.3827000    1.000000000000

     37   P     124             0.1209000    1.000000000000

     38   D     125             1.0970000    1.000000000000

     39   D     126             0.3180000    1.000000000000

     40   F     127             0.7610000    1.000000000000

 C         

     41   S     128          8236.0000000    0.000542430189
     41   S     129          1235.0000000    0.004196427901
     41   S     130           280.8000000    0.021540914108
     41   S     131            79.2700000    0.083614949614
     41   S     132            25.5900000    0.239871618922
     41   S     133             8.9970000    0.443751820060
     41   S     134             3.3190000    0.353579696469
     41   S     135             0.3643000   -0.009176366076

     42   S     136          8236.0000000   -0.000196392234
     42   S     137          1235.0000000   -0.001525950274
     42   S     138           280.8000000   -0.007890449028
     42   S     139            79.2700000   -0.031514870532
     42   S     140            25.5900000   -0.096910008320
     42   S     141             8.9970000   -0.220541526288
     42   S     142             3.3190000   -0.296069112937
     42   S     143             0.3643000    1.040503432950

     43   S     144             0.9059000    1.000000000000

     44   S     145             0.1285000    1.000000000000

     45   P     146            18.7100000    0.039426387165
     45   P     147             4.1330000    0.244088984924
     45   P     148             1.2000000    0.815492008943

     46   P     149             0.3827000    1.000000000000

     47   P     150             0.1209000    1.000000000000

     48   D     151             1.0970000    1.000000000000

     49   D     152             0.3180000    1.000000000000

     50   F     153             0.7610000    1.000000000000

 C         

     51   S     154          8236.0000000    0.000542430189
     51   S     155          1235.0000000    0.004196427901
     51   S     156           280.8000000    0.021540914108
     51   S     157            79.2700000    0.083614949614
     51   S     158            25.5900000    0.239871618922
     51   S     159             8.9970000    0.443751820060
     51   S     160             3.3190000    0.353579696469
     51   S     161             0.3643000   -0.009176366076

     52   S     162          8236.0000000   -0.000196392234
     52   S     163          1235.0000000   -0.001525950274
     52   S     164           280.8000000   -0.007890449028
     52   S     165            79.2700000   -0.031514870532
     52   S     166            25.5900000   -0.096910008320
     52   S     167             8.9970000   -0.220541526288
     52   S     168             3.3190000   -0.296069112937
     52   S     169             0.3643000    1.040503432950

     53   S     170             0.9059000    1.000000000000

     54   S     171             0.1285000    1.000000000000

     55   P     172            18.7100000    0.039426387165
     55   P     173             4.1330000    0.244088984924
     55   P     174             1.2000000    0.815492008943

     56   P     175             0.3827000    1.000000000000

     57   P     176             0.1209000    1.000000000000

     58   D     177             1.0970000    1.000000000000

     59   D     178             0.3180000    1.000000000000

     60   F     179             0.7610000    1.000000000000

 H         

     61   S     180            33.8700000    0.025494863235
     61   S     181             5.0950000    0.190362765893
     61   S     182             1.1590000    0.852162022245

     62   S     183             0.3258000    1.000000000000

     63   S     184             0.1027000    1.000000000000

     64   P     185             1.4070000    1.000000000000

     65   P     186             0.3880000    1.000000000000

     66   D     187             1.0570000    1.000000000000

 H         

     67   S     188            33.8700000    0.025494863235
     67   S     189             5.0950000    0.190362765893
     67   S     190             1.1590000    0.852162022245

     68   S     191             0.3258000    1.000000000000

     69   S     192             0.1027000    1.000000000000

     70   P     193             1.4070000    1.000000000000

     71   P     194             0.3880000    1.000000000000

     72   D     195             1.0570000    1.000000000000

 H         

     73   S     196            33.8700000    0.025494863235
     73   S     197             5.0950000    0.190362765893
     73   S     198             1.1590000    0.852162022245

     74   S     199             0.3258000    1.000000000000

     75   S     200             0.1027000    1.000000000000

     76   P     201             1.4070000    1.000000000000

     77   P     202             0.3880000    1.000000000000

     78   D     203             1.0570000    1.000000000000

 H         

     79   S     204            33.8700000    0.025494863235
     79   S     205             5.0950000    0.190362765893
     79   S     206             1.1590000    0.852162022245

     80   S     207             0.3258000    1.000000000000

     81   S     208             0.1027000    1.000000000000

     82   P     209             1.4070000    1.000000000000

     83   P     210             0.3880000    1.000000000000

     84   D     211             1.0570000    1.000000000000

 H         

     85   S     212            33.8700000    0.025494863235
     85   S     213             5.0950000    0.190362765893
     85   S     214             1.1590000    0.852162022245

     86   S     215             0.3258000    1.000000000000

     87   S     216             0.1027000    1.000000000000

     88   P     217             1.4070000    1.000000000000

     89   P     218             0.3880000    1.000000000000

     90   D     219             1.0570000    1.000000000000

 H         

     91   S     220            33.8700000    0.025494863235
     91   S     221             5.0950000    0.190362765893
     91   S     222             1.1590000    0.852162022245

     92   S     223             0.3258000    1.000000000000

     93   S     224             0.1027000    1.000000000000

     94   P     225             1.4070000    1.000000000000

     95   P     226             0.3880000    1.000000000000

     96   D     227             1.0570000    1.000000000000

 H         

     97   S     228            33.8700000    0.025494863235
     97   S     229             5.0950000    0.190362765893
     97   S     230             1.1590000    0.852162022245

     98   S     231             0.3258000    1.000000000000

     99   S     232             0.1027000    1.000000000000

    100   P     233             1.4070000    1.000000000000

    101   P     234             0.3880000    1.000000000000

    102   D     235             1.0570000    1.000000000000

 H         

    103   S     236            33.8700000    0.025494863235
    103   S     237             5.0950000    0.190362765893
    103   S     238             1.1590000    0.852162022245

    104   S     239             0.3258000    1.000000000000

    105   S     240             0.1027000    1.000000000000

    106   P     241             1.4070000    1.000000000000

    107   P     242             0.3880000    1.000000000000

    108   D     243             1.0570000    1.000000000000

 H         

    109   S     244            33.8700000    0.025494863235
    109   S     245             5.0950000    0.190362765893
    109   S     246             1.1590000    0.852162022245

    110   S     247             0.3258000    1.000000000000

    111   S     248             0.1027000    1.000000000000

    112   P     249             1.4070000    1.000000000000

    113   P     250             0.3880000    1.000000000000

    114   D     251             1.0570000    1.000000000000

 TOTAL NUMBER OF BASIS SET SHELLS             =  114
 NUMBER OF CARTESIAN GAUSSIAN BASIS FUNCTIONS =  354
 NOTE: THIS RUN WILL RESTRICT THE MO VARIATION SPACE TO SPHERICAL HARMONICS.
 THE NUMBER OF ORBITALS KEPT IN THE VARIATIONAL SPACE WILL BE PRINTED LATER.
 NUMBER OF ELECTRONS                          =  104
 CHARGE OF MOLECULE                           =    3
 SPIN MULTIPLICITY                            =    1
 NUMBER OF OCCUPIED ORBITALS (ALPHA)          =   52
 NUMBER OF OCCUPIED ORBITALS (BETA )          =   52
 TOTAL NUMBER OF ATOMS                        =   15
 THE NUCLEAR REPULSION ENERGY IS      597.9868516348
 NOTE THIS RUN IS USING CORE POTENTIALS, AND THE NUMBER OF ELECTRONS,
 OCCUPIED ORBITALS, AND NUCLEAR REPULSION ENERGY WILL BE ADJUSTED BELOW
 AFTER REMOVAL OF THE CORE CHARGES.

     $CONTRL OPTIONS
     ---------------
 SCFTYP=RHF          RUNTYP=OPTIMIZE     EXETYP=RUN     
 MPLEVL=       2     CITYP =NONE         CCTYP =NONE         VBTYP =NONE    
 DFTTYP=NONE         TDDFT =NONE    
 MULT  =       1     ICHARG=       3     NZVAR =      39     COORD =UNIQUE  
 PP    =READ         RELWFN=NONE         LOCAL =NONE         NUMGRD=       F
 ISPHER=       1     NOSYM =       0     MAXIT =     200     UNITS =ANGS    
 PLTORB=       F     MOLPLT=       F     AIMPAC=       F     FRIEND=        
 NPRINT=       7     IREST =       0     GEOM  =INPUT   
 NORMF =       0     NORMP =       0     ITOL  =      20     ICUT  =      11
 INTTYP=BEST         GRDTYP=BEST         QMTTOL= 1.0E-06

     $SYSTEM OPTIONS
     ---------------
  REPLICATED MEMORY=   300000000 WORDS (ON EVERY NODE).
 DISTRIBUTED MEMDDI=         300 MILLION WORDS IN AGGREGATE,
 MEMDDI DISTRIBUTED OVER  16 PROCESSORS IS    18750000 WORDS/PROCESSOR.
 TOTAL MEMORY REQUESTED ON EACH PROCESSOR=   318750000 WORDS.
 TIMLIM=      525600.00 MINUTES, OR     365.0 DAYS.
 PARALL= T  BALTYP=  DLB     KDIAG=    0  COREFL= F
 MXSEQ2=     300 MXSEQ3=     150  mem10=         0

          --------------
          ECP POTENTIALS
          --------------

 PARAMETERS FOR "LA-ECP  " ON ATOM    1 WITH ZCORE  46 AND LMAX  4 ARE
 FOR L= 4      COEFF    N           ZETA
    1       -2.85665    1        1.42345
 FOR L= 0      COEFF    N           ZETA
    1        8.85347    0       22.29739
    2      -68.41778    2        1.64320
    3      110.12463    2        1.85122
 FOR L= 1      COEFF    N           ZETA
    1        2.98675    0        1.77635
    2      -35.51815    2        3.98941
    3       53.65423    2        2.47524
 FOR L= 2      COEFF    N           ZETA
    1        1.67298    0        1.52169
    2       18.46625    2        1.52182
 FOR L= 3      COEFF    N           ZETA
    1       -4.64430    1        2.67762
    2      -14.43101    1       10.06608

 THE ECP RUN REMOVES   46 CORE ELECTRONS, AND THE SAME NUMBER OF PROTONS.
 NUMBER OF ELECTRONS KEPT IN THE CALCULATION IS =   58
 NUMBER OF OCCUPIED ORBITALS (ALPHA) KEPT IS    =   29
 NUMBER OF OCCUPIED ORBITALS (BETA ) KEPT IS    =   29
 THE ADJUSTED NUCLEAR REPULSION ENERGY=      320.8003533872
          ECP ANGULAR INTS.........     0.02 SECONDS

          ----------------
          PROPERTIES INPUT
          ----------------

     MOMENTS            FIELD           POTENTIAL          DENSITY
 IEMOM =       1   IEFLD =       0   IEPOT =       0   IEDEN =       0
 WHERE =COMASS     WHERE =NUCLEI     WHERE =NUCLEI     WHERE =NUCLEI  
 OUTPUT=BOTH       OUTPUT=BOTH       OUTPUT=BOTH       OUTPUT=BOTH    
 IEMINT=       0   IEFINT=       0                     IEDINT=       0
                                                       MORB  =       0
          EXTRAPOLATION IN EFFECT
          SOSCF IN EFFECT
 ORBITAL PRINTING OPTION: NPREO=     1   354     2     1

     -------------------------------
     INTEGRAL TRANSFORMATION OPTIONS
     -------------------------------
     NWORD  =            0
     CUTOFF = 1.0E-09     MPTRAN =       0
     DIRTRF =       T     AOINTS =DUP     

          ----------------------
          INTEGRAL INPUT OPTIONS
          ----------------------
 NOPK  =       1 NORDER=       0 SCHWRZ=       T

          -----------------------
          MP2 CONTROL INFORMATION
          -----------------------
          NACORE =       13  NBCORE =       13
          LMOMP2 =        F  AOINTS = DUP     
          METHOD =        2  NWORD  =               0
          MP2PRP =        F  OSPT   = NONE    
          CUTOFF = 1.00E-09  CPHFBS = BASISAO 
          CODE   = DDI     

          NUMBER OF CORE -A-  ORBITALS =    13
          NUMBER OF CORE -B-  ORBITALS =    13
          NUMBER OF OCC. -A-  ORBITALS =    29
          NUMBER OF OCC. -B-  ORBITALS =    29
          NUMBER OF MOLECULAR ORBITALS =   354
          NUMBER OF   BASIS  FUNCTIONS =   354

 
 
 -----------------------------------------------
  STATISTICS ON AUTOMATIC COORDINATE GENERATION 
 -----------------------------------------------
  NUMBER OF USER SPECIFIED BONDS                              0
  NUMBER OF BONDS                                            14
  NUMBER OF ANGLES                                           25
  NUMBER OF TORSIONS                                         30
  NUMBER OF EXTRA COORD.                                      0
  NUMBER OF EXTRA COORD. FOR CONSTRAINTS                      0
  NUMBER OF CONSTRAINED COORD.                                1
 
  TOTAL NUMBER OF PRIMITIVES                                 69
 -----------------------------------------------

   --- ENCODED Z MATRIX ---
 COORD  TYPE   I   J   K   L   M   N
    1      1    1   3
    2      1    2   4
    3      1    2   3
    4      1    2   6
    5      1    2   5
    6      1    4   8
    7      1    4   7
    8      1    4   9
    9      1    5  12
   10      1    5  11
   11      1    5  10
   12      1    6  15
   13      1    6  14
   14      1    6  13
   15      2    1   3   2
   16      2    2   5  11
   17      2    2   4   8
   18      2    2   6  13
   19      2    2   6  14
   20      2    2   4   9
   21      2    2   5  12
   22      2    2   5  10
   23      2    2   4   7
   24      2    2   6  15
   25      2    3   2   4
   26      2    3   2   5
   27      2    3   2   6
   28      2    4   2   6
   29      2    4   2   5
   30      2    5   2   6
   31      2    7   4   9
   32      2    7   4   8
   33      2    8   4   9
   34      2   10   5  11
   35      2   10   5  12
   36      2   11   5  12
   37      2   13   6  14
   38      2   13   6  15
   39      2   14   6  15
   40      3    1   3   2   5
   41      3    1   3   2   4
   42      3    1   3   2   6
   43      3    3   2   4   8
   44      3    3   2   6  15
   45      3    3   2   6  14
   46      3    3   2   4   7
   47      3    3   2   5  10
   48      3    3   2   6  13
   49      3    3   2   5  11
   50      3    3   2   5  12
   51      3    3   2   4   9
   52      3    4   2   6  15
   53      3    4   2   6  14
   54      3    4   2   5  10
   55      3    4   2   6  13
   56      3    4   2   5  12
   57      3    4   2   5  11
   58      3    5   2   6  15
   59      3    5   2   6  14
   60      3    5   2   4   7
   61      3    5   2   6  13
   62      3    5   2   4   9
   63      3    5   2   4   8
   64      3    6   2   4   7
   65      3    6   2   5  10
   66      3    6   2   5  11
   67      3    6   2   5  12
   68      3    6   2   4   9
   69      3    6   2   4   8

          INDEP./SYM. INTERNAL COORDINATES
          --------------------------------
 CRD  1=   1.0000 (  1)
 CRD  2=   0.1234 ( 20)  0.1194 ( 22)  0.1259 ( 24)  0.1650 ( 25)  0.2215 ( 26)
          -0.3865 ( 27)  0.2765 ( 28) -0.4825 ( 29)  0.2060 ( 30)  0.1723 ( 40)
          -0.1896 ( 41) -0.1412 ( 46)  0.1346 ( 50) -0.1109 ( 51)  0.1213 ( 52)
           0.1617 ( 53) -0.1383 ( 58) -0.1685 ( 61) -0.1276 ( 65) -0.1565 ( 66)
           0.1068 ( 68)  0.1459 ( 69)
 CRD  3=  -0.2474 (  2)  0.2245 (  5)  0.3669 ( 15)  0.1953 ( 18) -0.1856 ( 19)
          -0.1339 ( 20)  0.1570 ( 22) -0.3572 ( 28)  0.3937 ( 30)  0.1531 ( 40)
           0.1140 ( 41) -0.2671 ( 42)  0.1443 ( 44) -0.1127 ( 57) -0.1184 ( 63)
           0.1242 ( 64)  0.1337 ( 65)  0.1232 ( 67)  0.1358 ( 68)
 CRD  4=  -0.1649 (  2)  0.3864 (  4) -0.2215 (  5)  0.1336 ( 18)  0.1616 ( 19)
          -0.2222 ( 21) -0.2148 ( 23) -0.1047 ( 25) -0.1405 ( 26)  0.2451 ( 27)
          -0.1696 ( 29) -0.1213 ( 37)  0.1546 ( 40) -0.1709 ( 41)  0.2452 ( 43)
           0.1958 ( 46) -0.1509 ( 47) -0.2224 ( 49) -0.1828 ( 50)  0.1720 ( 51)
           0.1513 ( 54)  0.1194 ( 56) -0.1279 ( 60) -0.1517 ( 62) -0.1127 ( 68)
 CRD  5=  -0.3965 (  2) -0.3965 (  4) -0.3965 (  5) -0.2736 ( 16) -0.2736 ( 17)
          -0.2736 ( 24)  0.1192 ( 32)  0.1193 ( 33)  0.1192 ( 34)  0.1191 ( 36)
           0.1191 ( 38)  0.1192 ( 39) -0.1211 ( 54)  0.1211 ( 55) -0.1211 ( 59)
           0.1211 ( 62) -0.1211 ( 64)  0.1211 ( 67)
 CRD  6=  -0.2467 (  2) -0.3433 (  3) -0.2465 (  4) -0.2459 (  5)  0.2310 ( 16)
           0.2314 ( 17) -0.2133 ( 18) -0.2126 ( 19) -0.2127 ( 20) -0.2132 ( 21)
          -0.2121 ( 22) -0.2138 ( 23)  0.2310 ( 24)  0.1638 ( 31)  0.1635 ( 35)
           0.1637 ( 37)  0.1289 ( 54) -0.1289 ( 55)  0.1288 ( 59) -0.1288 ( 62)
           0.1289 ( 64) -0.1287 ( 67)
 CRD  7=  -0.3828 (  2)  0.3498 (  5)  0.1092 ( 13) -0.1077 ( 14) -0.1684 ( 15)
           0.1738 ( 16) -0.1891 ( 17) -0.3632 ( 18)  0.3797 ( 19)  0.2855 ( 21)
          -0.1350 ( 22) -0.2437 ( 23)  0.1896 ( 32) -0.1962 ( 36)  0.1229 ( 38)
          -0.1452 ( 39)
 CRD  8=  -0.1407 (  2)  0.3232 (  4) -0.1828 (  5) -0.1951 ( 16) -0.1475 ( 17)
          -0.3556 ( 20)  0.3406 ( 21) -0.3219 ( 22)  0.3678 ( 23)  0.3443 ( 24)
           0.1898 ( 33)  0.1982 ( 34) -0.1552 ( 38) -0.1335 ( 39)
 CRD  9=  -0.1127 (  2)  0.1026 (  5) -0.3087 ( 15) -0.4064 ( 16)  0.4472 ( 17)
          -0.2920 ( 20)  0.1962 ( 21)  0.2785 ( 22) -0.2305 ( 23)  0.2074 ( 31)
          -0.1887 ( 35) -0.1109 ( 53) -0.1008 ( 55)  0.1106 ( 56) -0.1107 ( 59)
           0.1001 ( 60) -0.1006 ( 61)  0.1087 ( 67)
 CRD 10=  -0.3704 ( 18)  0.3708 ( 19) -0.3714 ( 20) -0.3698 ( 21)  0.3711 ( 22)
           0.3703 ( 23) -0.1315 ( 32)  0.1312 ( 33) -0.1307 ( 34)  0.1314 ( 36)
           0.1312 ( 38) -0.1311 ( 39)
 CRD 11=   0.1005 ( 11)  0.1411 ( 12) -0.2934 ( 16) -0.2185 ( 17) -0.2810 ( 18)
          -0.2452 ( 19)  0.3007 ( 20)  0.3216 ( 22)  0.5112 ( 24)  0.1159 ( 32)
          -0.1332 ( 35)  0.1238 ( 36)  0.2320 ( 37) -0.1074 ( 39)
 CRD 12=   0.7678 (  3)  0.1064 (  6)  0.1052 ( 10)  0.1057 ( 12)  0.2240 ( 16)
           0.2269 ( 17) -0.1103 ( 18) -0.1075 ( 19) -0.1087 ( 20) -0.1082 ( 21)
          -0.1088 ( 22) -0.1104 ( 23)  0.2252 ( 24)  0.1159 ( 31)  0.1150 ( 35)
           0.1154 ( 37)
 CRD 13=  -0.1623 (  2)  0.1471 (  5) -0.1327 (  6)  0.1212 ( 10) -0.3697 ( 15)
           0.2614 ( 16) -0.2864 ( 17)  0.2676 ( 18) -0.2777 ( 19) -0.2008 ( 21)
           0.1127 ( 22)  0.1649 ( 23) -0.2046 ( 25)  0.1860 ( 26)  0.1311 ( 28)
          -0.1449 ( 30)  0.1684 ( 33) -0.1725 ( 34) -0.1162 ( 38) -0.1065 ( 52)
          -0.1305 ( 53)  0.1039 ( 54) -0.1297 ( 55)  0.1114 ( 56) -0.1238 ( 59)
          -0.1231 ( 61)
 CRD 14=  -0.2089 ( 43) -0.2088 ( 44) -0.1810 ( 45) -0.1812 ( 46) -0.1808 ( 47)
          -0.1810 ( 48) -0.2086 ( 49) -0.1808 ( 50) -0.1812 ( 51) -0.2088 ( 52)
          -0.1811 ( 53) -0.1809 ( 54) -0.1811 ( 55) -0.1809 ( 56) -0.2087 ( 57)
          -0.2088 ( 58) -0.1810 ( 59) -0.1811 ( 60) -0.1810 ( 61) -0.1811 ( 62)
          -0.2088 ( 63) -0.1811 ( 64) -0.1809 ( 65) -0.2087 ( 66) -0.1809 ( 67)
          -0.1811 ( 68) -0.2088 ( 69)
 CRD 15=   0.1055 (  7)  0.1319 (  9) -0.1963 ( 13) -0.1924 ( 14) -0.1025 ( 38)
          -0.1085 ( 39) -0.2656 ( 43) -0.2449 ( 46)  0.2428 ( 47)  0.2413 ( 49)
           0.2183 ( 50) -0.2631 ( 51)  0.1746 ( 54)  0.1501 ( 56)  0.1731 ( 57)
          -0.1729 ( 60) -0.1911 ( 62) -0.1937 ( 63) -0.1862 ( 64)  0.1925 ( 65)
           0.1910 ( 66)  0.1680 ( 67) -0.2044 ( 68) -0.2069 ( 69)
 CRD 16=   0.3951 (  6)  0.3471 (  7)  0.3087 (  8) -0.3167 (  9) -0.3447 ( 10)
          -0.2575 ( 11)  0.1069 ( 16) -0.1223 ( 17) -0.1761 ( 20)  0.1157 ( 21)
           0.1641 ( 22) -0.1439 ( 23)  0.1833 ( 31)  0.1215 ( 32)  0.1400 ( 33)
          -0.1280 ( 34) -0.1604 ( 35) -0.1005 ( 36)
 CRD 17=   0.1723 (  6)  0.1823 (  8)  0.1545 (  9)  0.2594 ( 10)  0.2448 ( 11)
          -0.4313 ( 12) -0.3240 ( 13) -0.3363 ( 14)  0.1618 ( 18)  0.1709 ( 19)
          -0.1314 ( 21) -0.1018 ( 23)  0.1232 ( 24)  0.1170 ( 35) -0.1943 ( 37)
          -0.1293 ( 38) -0.1344 ( 39) -0.1011 ( 54)  0.1058 ( 60)  0.1104 ( 62)
           0.1043 ( 63)  0.1025 ( 68)
 CRD 18=  -0.1007 (  2) -0.1008 (  4) -0.1007 (  5) -0.2692 (  6) -0.3024 (  7)
          -0.3023 (  8) -0.3026 (  9) -0.2691 ( 10) -0.3024 ( 11) -0.2695 ( 12)
          -0.3028 ( 13) -0.3027 ( 14)  0.1121 ( 16)  0.1121 ( 17)  0.1014 ( 18)
           0.1015 ( 19)  0.1013 ( 20)  0.1013 ( 21)  0.1014 ( 22)  0.1012 ( 23)
           0.1122 ( 24) -0.1067 ( 31) -0.1049 ( 32) -0.1050 ( 33) -0.1049 ( 34)
          -0.1069 ( 35) -0.1049 ( 36) -0.1070 ( 37) -0.1049 ( 38) -0.1050 ( 39)
 CRD 19=  -0.1479 (  2)  0.1341 (  5) -0.1673 (  7) -0.2738 (  8)  0.1280 (  9)
           0.2718 ( 11) -0.1050 ( 13)  0.1464 ( 14) -0.1858 ( 15) -0.1096 ( 43)
           0.2565 ( 44)  0.2419 ( 45) -0.1039 ( 46) -0.1382 ( 47)  0.2420 ( 48)
          -0.1471 ( 49) -0.1390 ( 50) -0.1029 ( 51)  0.2134 ( 52)  0.1988 ( 53)
           0.1989 ( 55) -0.1070 ( 57)  0.2168 ( 58)  0.2021 ( 59)  0.2022 ( 61)
          -0.1042 ( 64) -0.1308 ( 65) -0.1397 ( 66) -0.1317 ( 67) -0.1033 ( 68)
          -0.1099 ( 69)
 CRD 20=   0.1949 (  6) -0.2676 (  8)  0.2755 ( 10) -0.2888 ( 11) -0.4804 ( 12)
           0.2121 ( 13)  0.2510 ( 14)  0.1485 ( 32) -0.1398 ( 35)  0.1600 ( 36)
           0.2438 ( 37) -0.1154 ( 38) -0.1368 ( 39) -0.1336 ( 45)  0.1301 ( 48)
          -0.1399 ( 53)  0.1238 ( 55) -0.1266 ( 59)  0.1371 ( 61)
 CRD 21=  -0.4074 (  6)  0.2856 (  7) -0.3073 (  9)  0.3678 ( 10) -0.2687 ( 13)
           0.2275 ( 14)  0.2103 ( 31) -0.1594 ( 33)  0.1700 ( 34) -0.1898 ( 35)
           0.1411 ( 38) -0.1174 ( 39)  0.1200 ( 44) -0.1023 ( 46)  0.1119 ( 47)
           0.1197 ( 51)  0.1233 ( 52)  0.1064 ( 54)  0.1226 ( 58) -0.1079 ( 60)
           0.1141 ( 62)  0.1139 ( 65)  0.1230 ( 68)
 CRD 22=  -0.3845 (  6)  0.1856 (  7)  0.1660 (  8)  0.1606 (  9) -0.3812 ( 10)
           0.1876 ( 11) -0.3767 ( 12)  0.1814 ( 13)  0.1624 ( 14)  0.1955 ( 31)
          -0.1036 ( 33)  0.1937 ( 35) -0.1048 ( 36)  0.1914 ( 37) -0.1014 ( 38)
          -0.1015 ( 45) -0.1036 ( 46) -0.1022 ( 47)  0.1049 ( 48)  0.1067 ( 50)
           0.1072 ( 51) -0.1174 ( 54)  0.1202 ( 55) -0.1168 ( 59)  0.1224 ( 62)
          -0.1188 ( 64)  0.1220 ( 67)
 CRD 23=  -0.3134 (  7)  0.3284 (  8)  0.3224 (  9) -0.3127 ( 11) -0.3142 ( 13)
           0.3253 ( 14) -0.1765 ( 32)  0.1680 ( 33) -0.1731 ( 34)  0.1678 ( 36)
           0.1684 ( 38) -0.1746 ( 39)  0.1256 ( 43)  0.1254 ( 44)  0.1242 ( 49)
           0.1261 ( 52)  0.1237 ( 57)  0.1249 ( 58)  0.1260 ( 63)  0.1248 ( 66)
           0.1250 ( 69)
 CRD 24=  -0.4059 (  7)  0.3162 (  8) -0.3895 (  9)  0.1215 ( 10)  0.2634 ( 11)
          -0.2053 ( 12)  0.1452 ( 13) -0.1749 ( 32)  0.2280 ( 33)  0.2197 ( 34)
          -0.1443 ( 36)  0.1188 ( 37)  0.1164 ( 43)  0.1282 ( 47) -0.1056 ( 49)
          -0.1266 ( 51)  0.1412 ( 54) -0.1400 ( 62)  0.1031 ( 63)  0.1354 ( 65)
          -0.1359 ( 68)  0.1072 ( 69)
 CRD 25=   0.2461 (  6) -0.2358 (  8) -0.1213 (  9) -0.2201 ( 10)  0.2831 ( 11)
          -0.3396 ( 13)  0.3593 ( 14) -0.1489 ( 31)  0.1579 ( 32)  0.1332 ( 35)
          -0.1855 ( 36)  0.2081 ( 38) -0.2223 ( 39) -0.1368 ( 45)  0.1303 ( 46)
          -0.1209 ( 48)  0.1431 ( 50) -0.1524 ( 53) -0.1366 ( 55)  0.1449 ( 56)
          -0.1541 ( 59)  0.1287 ( 60) -0.1383 ( 61)  0.1458 ( 64)  0.1604 ( 67)
 CRD 26=  -0.1140 (  2)  0.2671 (  4) -0.1531 (  5) -0.2386 (  7) -0.2618 (  9)
           0.1289 ( 12)  0.2571 ( 13)  0.2321 ( 14)  0.1586 ( 18)  0.1817 ( 19)
          -0.2102 ( 21) -0.1969 ( 23) -0.1179 ( 27) -0.1090 ( 28)  0.1902 ( 29)
           0.1563 ( 32)  0.1257 ( 35)  0.1623 ( 36) -0.2198 ( 37) -0.1005 ( 38)
          -0.1207 ( 39) -0.1344 ( 40)  0.1489 ( 41) -0.1403 ( 43)  0.1275 ( 49)
          -0.1446 ( 54) -0.1225 ( 56)  0.1286 ( 60)  0.1450 ( 62)  0.1014 ( 68)
 CRD 27=   0.4667 (  3) -0.2684 (  6) -0.2679 ( 10) -0.2681 ( 12) -0.1524 ( 16)
          -0.1528 ( 17) -0.1526 ( 24)  0.1599 ( 32)  0.1605 ( 33)  0.1599 ( 34)
           0.1596 ( 36)  0.1596 ( 38)  0.1603 ( 39) -0.1010 ( 52)  0.1758 ( 54)
          -0.1756 ( 55)  0.1008 ( 57)  0.1008 ( 58)  0.1759 ( 59) -0.1758 ( 62)
          -0.1007 ( 63)  0.1756 ( 64) -0.1011 ( 66) -0.1758 ( 67)  0.1010 ( 69)
 CRD 28=   0.1304 (  6)  0.1624 (  7)  0.2603 (  8) -0.1262 (  9) -0.1189 ( 10)
          -0.2576 ( 11) -0.1344 ( 14) -0.2086 ( 15) -0.1448 ( 16)  0.1591 ( 17)
           0.2162 ( 20) -0.1366 ( 21) -0.2078 ( 22)  0.1631 ( 23) -0.1670 ( 25)
           0.1512 ( 26) -0.2279 ( 31) -0.1181 ( 32) -0.1943 ( 33)  0.1931 ( 34)
           0.2068 ( 35)  0.1041 ( 38) -0.1241 ( 42) -0.1100 ( 43)  0.2579 ( 44)
           0.1838 ( 45) -0.1153 ( 47)  0.1854 ( 48) -0.1477 ( 49)
 CRD 29=  -0.3201 (  2)  0.1840 (  3) -0.3202 (  4) -0.3197 (  5)  0.1796 (  7)
           0.1793 (  8)  0.1796 (  9)  0.1792 ( 11)  0.1794 ( 13)  0.1796 ( 14)
           0.1222 ( 16)  0.1223 ( 17)  0.1570 ( 18)  0.1569 ( 19)  0.1569 ( 20)
           0.1568 ( 21)  0.1568 ( 22)  0.1569 ( 23)  0.1223 ( 24) -0.2242 ( 31)
          -0.1057 ( 32) -0.1055 ( 33) -0.1052 ( 34) -0.2241 ( 35) -0.1055 ( 36)
          -0.2242 ( 37) -0.1056 ( 38) -0.1055 ( 39)
 CRD 30=  -0.2338 (  2)  0.5476 (  4) -0.3141 (  5)  0.1561 (  8)  0.1116 ( 10)
           0.1704 ( 11) -0.1948 ( 12) -0.1459 ( 13) -0.1625 ( 14)  0.1093 ( 16)
          -0.1879 ( 18) -0.1843 ( 19)  0.1244 ( 22) -0.1905 ( 24) -0.1536 ( 33)
          -0.1762 ( 34)  0.1713 ( 37)  0.2047 ( 38)  0.1920 ( 39)
 CRD 31=  -0.1876 (  3) -0.1767 (  6) -0.1765 ( 10) -0.1766 ( 12)  0.1279 ( 16)
           0.1278 ( 17)  0.1278 ( 24)  0.1001 ( 26)  0.1000 ( 27) -0.1360 ( 31)
          -0.1359 ( 35) -0.1359 ( 37)  0.1286 ( 45)  0.1280 ( 46)  0.1283 ( 47)
          -0.1278 ( 48) -0.1282 ( 50) -0.1285 ( 51)  0.1325 ( 52)  0.2612 ( 53)
          -0.2610 ( 56) -0.1332 ( 57) -0.1332 ( 58)  0.2609 ( 60) -0.2609 ( 61)
           0.1332 ( 63)  0.2613 ( 65)  0.1326 ( 66) -0.2612 ( 68) -0.1324 ( 69)
 CRD 32=  -0.4621 (  2)  0.4192 (  5)  0.1578 (  6)  0.1537 (  7) -0.1744 (  9)
          -0.1431 ( 10) -0.1948 ( 13)  0.1808 ( 14)  0.1226 ( 15) -0.1043 ( 16)
           0.1151 ( 17)  0.1139 ( 20) -0.1090 ( 21) -0.1023 ( 22)  0.1189 ( 23)
           0.1013 ( 25) -0.2000 ( 32)  0.2082 ( 36) -0.1303 ( 38)  0.1561 ( 39)
           0.1027 ( 43) -0.2408 ( 44)  0.1380 ( 49) -0.1039 ( 52) -0.1020 ( 58)
 CRD 33=   0.2305 (  7) -0.2309 (  8) -0.2311 (  9)  0.2314 ( 11)  0.2313 ( 13)
          -0.2308 ( 14) -0.1771 ( 32)  0.1769 ( 33) -0.1772 ( 34)  0.1776 ( 36)
           0.1774 ( 38) -0.1771 ( 39)  0.1514 ( 43)  0.1515 ( 44) -0.1131 ( 45)
          -0.1134 ( 46) -0.1132 ( 47) -0.1136 ( 48)  0.1517 ( 49) -0.1137 ( 50)
          -0.1130 ( 51)  0.1516 ( 52) -0.1130 ( 53) -0.1131 ( 54) -0.1135 ( 55)
          -0.1136 ( 56)  0.1518 ( 57)  0.1515 ( 58) -0.1131 ( 59) -0.1135 ( 60)
          -0.1136 ( 61) -0.1131 ( 62)  0.1513 ( 63) -0.1135 ( 64) -0.1131 ( 65)
           0.1517 ( 66) -0.1136 ( 67) -0.1131 ( 68)  0.1513 ( 69)
 CRD 34=   0.1286 (  6)  0.1167 (  7) -0.2303 (  8)  0.1575 ( 10) -0.2297 ( 11)
          -0.2853 ( 12)  0.1127 ( 13)  0.1391 ( 14)  0.1074 ( 20)  0.1068 ( 22)
           0.1380 ( 29) -0.1862 ( 32)  0.1132 ( 35) -0.1884 ( 36) -0.2050 ( 37)
           0.1101 ( 38)  0.1301 ( 39)  0.1066 ( 43)  0.1792 ( 45) -0.1750 ( 46)
          -0.1651 ( 48)  0.1855 ( 50)  0.1419 ( 53) -0.2024 ( 55)  0.1658 ( 56)
          -0.1177 ( 57)  0.2162 ( 59) -0.1594 ( 60) -0.1281 ( 61)  0.1222 ( 63)
          -0.1923 ( 64)  0.2071 ( 67)
 CRD 35=  -0.2879 (  6)  0.1938 (  7) -0.1980 (  9)  0.2676 ( 10) -0.1532 ( 13)
           0.1346 ( 14)  0.1004 ( 17)  0.1069 ( 30) -0.2084 ( 31)  0.1706 ( 33)
          -0.1724 ( 34)  0.1935 ( 35) -0.1186 ( 38)  0.1012 ( 39)  0.1311 ( 46)
          -0.2149 ( 47)  0.1084 ( 48)  0.1091 ( 50) -0.2174 ( 51) -0.2478 ( 54)
           0.1209 ( 55)  0.1173 ( 61) -0.2508 ( 62)  0.1553 ( 64) -0.1941 ( 65)
           0.1298 ( 67) -0.1932 ( 68)
 CRD 36=   0.1441 (  4)  0.2431 (  7) -0.1469 (  8)  0.2411 (  9) -0.1132 ( 10)
          -0.1125 ( 11)  0.1985 ( 12) -0.1303 ( 13) -0.1157 ( 21) -0.1220 ( 23)
          -0.1090 ( 24)  0.1232 ( 29) -0.1178 ( 32)  0.1764 ( 33)  0.1726 ( 34)
          -0.1005 ( 35)  0.1763 ( 37)  0.1209 ( 43) -0.1227 ( 45)  0.1817 ( 47)
           0.1435 ( 48) -0.1094 ( 49) -0.1732 ( 51) -0.1677 ( 53) -0.1063 ( 56)
          -0.2456 ( 57) -0.1013 ( 59)  0.1649 ( 61)  0.2641 ( 63) -0.2077 ( 66)
           0.2358 ( 69)
 CRD 37=  -0.2302 (  2)  0.2091 (  5) -0.1117 (  6)  0.1657 (  8)  0.1014 ( 10)
          -0.1871 ( 11)  0.1930 ( 13) -0.2073 ( 14)  0.1436 ( 18) -0.1423 ( 19)
           0.1188 ( 25) -0.1077 ( 26)  0.1370 ( 28) -0.1511 ( 30) -0.1219 ( 31)
           0.1107 ( 35) -0.1126 ( 36)  0.1484 ( 38) -0.1533 ( 39)  0.1514 ( 42)
          -0.2084 ( 45)  0.1706 ( 46) -0.1934 ( 48)  0.1920 ( 50)  0.2691 ( 52)
           0.1062 ( 56) -0.1191 ( 57)  0.2763 ( 58)  0.1198 ( 60) -0.1213 ( 65)
          -0.1926 ( 66) -0.1312 ( 68) -0.1573 ( 69)
 CRD 38=   0.7095 ( 15) -0.2926 ( 25)  0.2654 ( 26)  0.2212 ( 28) -0.2439 ( 30)
           0.1346 ( 44)  0.1527 ( 45) -0.1128 ( 47)  0.1577 ( 48)  0.1154 ( 56)
           0.1035 ( 57)  0.1157 ( 60)
 CRD 39=   0.5775 ( 40)  0.5772 ( 41)  0.5774 ( 42)

 THE DETERMINANT OF THE G MATRIX IS 10**(   -13)


                     --------------------
                     INTERNAL COORDINATES
                     --------------------

                 - - ATOMS - -         COORDINATE      COORDINATE
 NO.   TYPE    I  J  K  L  M  N        (BOHR,RAD)       (ANG,DEG)
 ----------------------------------------------------------------
   1 STRETCH   1  3                     5.1022602       2.7000000
   2 STRETCH   2  4                     3.3538460       1.7747790
   3 STRETCH   2  3                     3.3196218       1.7566683
   4 STRETCH   2  6                     3.3539733       1.7748464
   5 STRETCH   2  5                     3.3538992       1.7748072
   6 STRETCH   4  8                     2.0679643       1.0943196
   7 STRETCH   4  7                     2.0574453       1.0887532
   8 STRETCH   4  9                     2.0572881       1.0886701
   9 STRETCH   5 12                     2.0573449       1.0887001
  10 STRETCH   5 11                     2.0679960       1.0943364
  11 STRETCH   5 10                     2.0573635       1.0887099
  12 STRETCH   6 15                     2.0678311       1.0942492
  13 STRETCH   6 14                     2.0574193       1.0887395
  14 STRETCH   6 13                     2.0574658       1.0887641
  15 BEND      1  3  2                  3.1407285     179.9504864
  16 BEND      2  5 11                  1.8647629     106.8430437
  17 BEND      2  4  8                  1.8654887     106.8846315
  18 BEND      2  6 13                  1.9363405     110.9441357
  19 BEND      2  6 14                  1.9367673     110.9685932
  20 BEND      2  4  9                  1.9363663     110.9456164
  21 BEND      2  5 12                  1.9367468     110.9674169
  22 BEND      2  5 10                  1.9366586     110.9623649
  23 BEND      2  4  7                  1.9362777     110.9405404
  24 BEND      2  6 15                  1.8648449     106.8477426
  25 BEND      3  2  4                  1.8625915     106.7186329
  26 BEND      3  2  5                  1.8629232     106.7376352
  27 BEND      3  2  6                  1.8629692     106.7402727
  28 BEND      4  2  6                  1.9560829     112.0752918
  29 BEND      4  2  5                  1.9558860     112.0640120
  30 BEND      5  2  6                  1.9557846     112.0582053
  31 BEND      7  4  9                  1.9373963     111.0046285
  32 BEND      7  4  8                  1.8926647     108.4417006
  33 BEND      8  4  9                  1.8931684     108.4705596
  34 BEND     10  5 11                  1.8926604     108.4414529
  35 BEND     10  5 12                  1.9375674     111.0144323
  36 BEND     11  5 12                  1.8929064     108.4555452
  37 BEND     13  6 14                  1.9376724     111.0204481
  38 BEND     13  6 15                  1.8928290     108.4511126
  39 BEND     14  6 15                  1.8928573     108.4527372
  40 TORSION   1  3  2  5               0.6078242      34.8257610
  41 TORSION   1  3  2  4               2.7021086     154.8194186
  42 TORSION   1  3  2  6              -1.4865386     -85.1723900
  43 TORSION   3  2  4  8              -3.1397635    -179.8951976
  44 TORSION   3  2  6 15               3.1406228     179.9444323
  45 TORSION   3  2  6 14              -1.0822197     -62.0066193
  46 TORSION   3  2  4  7              -1.0795371     -61.8529181
  47 TORSION   3  2  5 10              -1.0836507     -62.0886112
  48 TORSION   3  2  6 13               1.0805476      61.9108182
  49 TORSION   3  2  5 11               3.1395369     179.8822159
  50 TORSION   3  2  5 12               1.0791952      61.8333328
  51 TORSION   3  2  4  9               1.0825410      62.0250294
  52 TORSION   4  2  6 15              -1.1093065     -63.5585802
  53 TORSION   4  2  6 14               0.9510363      54.4903681
  54 TORSION   4  2  5 10              -3.1167730    -178.5779384
  55 TORSION   4  2  6 13               3.1138036     178.4078057
  56 TORSION   4  2  5 12              -0.9539271     -54.6559945
  57 TORSION   4  2  5 11               1.1064146      63.3928887
  58 TORSION   5  2  6 15               1.1071274      63.4337280
  59 TORSION   5  2  6 14              -3.1157151    -178.5173236
  60 TORSION   5  2  4  7               0.9537852      54.6478664
  61 TORSION   5  2  6 13              -0.9529478     -54.5998861
  62 TORSION   5  2  4  9               3.1158633     178.5258139
  63 TORSION   5  2  4  8              -1.1064412     -63.3944130
  64 TORSION   6  2  4  7              -3.1130207    -178.3629494
  65 TORSION   6  2  5 10               0.9498725      54.4236833
  66 TORSION   6  2  5 11              -1.1101252     -63.6054896
  67 TORSION   6  2  5 12               3.1127184     178.3456273
  68 TORSION   6  2  4  9              -0.9509427     -54.4850018
  69 TORSION   6  2  4  8               1.1099381      63.5947712

     ------------------------------------------
     THE POINT GROUP IS C1 , NAXIS= 0, ORDER= 1
     ------------------------------------------

 -- VARIATIONAL SPACE WILL BE RESTRICTED TO PURE SPHERICAL HARMONICS ONLY --
 AFTER EXCLUDING CONTAMINANT COMBINATIONS FROM THE CARTESIAN GAUSSIAN BASIS
 SET, THE NUMBER OF SPHERICAL HARMONICS KEPT IN THE VARIATION SPACE IS  316

     DIMENSIONS OF THE SYMMETRY SUBSPACES ARE
 A   =  316

 ..... DONE SETTING UP THE RUN .....
 CPU     0: STEP CPU TIME=     0.08 TOTAL CPU TIME=        0.1 (    0.0 MIN)
 TOTAL WALL CLOCK TIME=        0.2 SECONDS, CPU UTILIZATION IS  53.33%


          -----------------------------
          STATIONARY POINT LOCATION RUN
          -----------------------------


           ** GEOMETRY CONSTRAINTS ARE BEING APPLIED. **

          TRANSFORMING DISPLACEMENT FROM INTERNALS TO CARTESIANS
          THE ROOT MEAN SQUARE ERROR IN ITERATION   1 IS   0.00000000
 WARNING! THE RADIUS IN CARTESIANS IS    0.00000
 OBTAINING INITIAL HESSIAN, HESS=GUESS   
 DIAGONAL GUESS HESSIAN IN INTERNAL COORDS IS
     1  0.1824     2  0.4333     3  0.3624     4  0.4333     5  0.4333
     6  0.3435     7  0.3472     8  0.3473     9  0.3472    10  0.3435
    11  0.3472    12  0.3435    13  0.3472    14  0.3472    15  0.2604
    16  0.2409    17  0.2409    18  0.2412    19  0.2412    20  0.2412
    21  0.2412    22  0.2412    23  0.2412    24  0.2409    25  0.2785
    26  0.2785    27  0.2785    28  0.2914    29  0.2914    30  0.2914
    31  0.2035    32  0.2032    33  0.2033    34  0.2032    35  0.2035
    36  0.2032    37  0.2035    38  0.2032    39  0.2033    40  0.2500
    41  0.2500    42  0.2500    43  0.2500    44  0.2500    45  0.2500
    46  0.2500    47  0.2500    48  0.2500    49  0.2500    50  0.2500
    51  0.2500    52  0.2500    53  0.2500    54  0.2500    55  0.2500
    56  0.2500    57  0.2500    58  0.2500    59  0.2500    60  0.2500
    61  0.2500    62  0.2500    63  0.2500    64  0.2500    65  0.2500
    66  0.2500    67  0.2500    68  0.2500    69  0.2500
 TRANSFORMING HESSIAN TO SYMMETRY COORDINATES

          PARAMETERS CONTROLLING GEOMETRY SEARCH ARE
          METHOD =QA                  UPHESS =BFGS    
          NNEG   =         0          NFRZ   =         0
          NSTEP  =        50          IFOLOW =         1
          HESS   =GUESS               RESTAR =         F
          IHREP  =         0          HSSEND =         F
          NPRT   =         0          NPUN   =         0
          OPTTOL = 1.000E-04          RMIN   = 1.500E-03
          RMAX   = 1.000E-01          RLIM   = 7.000E-02
          DXMAX  = 3.000E-01          PURIFY =         F
          MOVIE  =         F          TRUPD  =         T
          TRMAX  = 5.000E-01          TRMIN  = 5.000E-02
          ITBMAT =         5          STPT   =         F
          STSTEP = 1.000E-02          PROJCT=          T

 BEGINNING GEOMETRY SEARCH POINT NSERCH=   0 ...

 COORDINATES OF ALL ATOMS ARE (ANGS)
   ATOM   CHARGE       X              Y              Z
 ------------------------------------------------------------
 LA         57.0  -0.1739353441   1.1341682690  -4.0490164368
 P          15.0  -0.0194397017   0.1595322384   0.2970283012
 O           8.0  -0.0812522247   0.5437731583  -1.4159871068
 C           6.0  -1.4689315978   0.8719880022   1.0327051766
 C           6.0   1.4730872541   0.8822768717   0.9294394888
 C           6.0  -0.0085097223  -1.6107478095   0.4237910544
 H           1.0  -1.4706802646   1.9548210732   0.9193337786
 H           1.0  -1.4321990015   0.6357852246   2.1005977005
 H           1.0  -2.3733261866   0.4342828682   0.6135546616
 H           1.0   2.3491557427   0.4503097695   0.4486092070
 H           1.0   1.5122730534   0.6457150006   1.9971825127
 H           1.0   1.4598501129   1.9650305465   0.8165804861
 H           1.0   0.8736807774  -2.0299391547  -0.0572762511
 H           1.0  -0.9198912240  -2.0367942975   0.0075918497
 H           1.0   0.0310004664  -1.8520946340   1.4903612083


                     --------------------
                     INTERNAL COORDINATES
                     --------------------

                 - - ATOMS - -         COORDINATE      COORDINATE
 NO.   TYPE    I  J  K  L  M  N        (BOHR,RAD)       (ANG,DEG)
 ----------------------------------------------------------------
   1 STRETCH   1  3                     5.1022602       2.7000000
   2 STRETCH   2  4                     3.3538460       1.7747790
   3 STRETCH   2  3                     3.3196218       1.7566683
   4 STRETCH   2  6                     3.3539733       1.7748464
   5 STRETCH   2  5                     3.3538992       1.7748072
   6 STRETCH   4  8                     2.0679643       1.0943196
   7 STRETCH   4  7                     2.0574453       1.0887532
   8 STRETCH   4  9                     2.0572881       1.0886701
   9 STRETCH   5 12                     2.0573449       1.0887001
  10 STRETCH   5 11                     2.0679960       1.0943364
  11 STRETCH   5 10                     2.0573635       1.0887099
  12 STRETCH   6 15                     2.0678311       1.0942492
  13 STRETCH   6 14                     2.0574193       1.0887395
  14 STRETCH   6 13                     2.0574658       1.0887641
  15 BEND      1  3  2                  3.1407285     179.9504864
  16 BEND      2  5 11                  1.8647629     106.8430437
  17 BEND      2  4  8                  1.8654887     106.8846315
  18 BEND      2  6 13                  1.9363405     110.9441357
  19 BEND      2  6 14                  1.9367673     110.9685932
  20 BEND      2  4  9                  1.9363663     110.9456164
  21 BEND      2  5 12                  1.9367468     110.9674169
  22 BEND      2  5 10                  1.9366586     110.9623649
  23 BEND      2  4  7                  1.9362777     110.9405404
  24 BEND      2  6 15                  1.8648449     106.8477426
  25 BEND      3  2  4                  1.8625915     106.7186329
  26 BEND      3  2  5                  1.8629232     106.7376352
  27 BEND      3  2  6                  1.8629692     106.7402727
  28 BEND      4  2  6                  1.9560829     112.0752918
  29 BEND      4  2  5                  1.9558860     112.0640120
  30 BEND      5  2  6                  1.9557846     112.0582053
  31 BEND      7  4  9                  1.9373963     111.0046285
  32 BEND      7  4  8                  1.8926647     108.4417006
  33 BEND      8  4  9                  1.8931684     108.4705596
  34 BEND     10  5 11                  1.8926604     108.4414529
  35 BEND     10  5 12                  1.9375674     111.0144323
  36 BEND     11  5 12                  1.8929064     108.4555452
  37 BEND     13  6 14                  1.9376724     111.0204481
  38 BEND     13  6 15                  1.8928290     108.4511126
  39 BEND     14  6 15                  1.8928573     108.4527372
  40 TORSION   1  3  2  5               0.6078242      34.8257610
  41 TORSION   1  3  2  4               2.7021086     154.8194186
  42 TORSION   1  3  2  6              -1.4865386     -85.1723900
  43 TORSION   3  2  4  8              -3.1397635    -179.8951976
  44 TORSION   3  2  6 15               3.1406228     179.9444323
  45 TORSION   3  2  6 14              -1.0822197     -62.0066193
  46 TORSION   3  2  4  7              -1.0795371     -61.8529181
  47 TORSION   3  2  5 10              -1.0836507     -62.0886112
  48 TORSION   3  2  6 13               1.0805476      61.9108182
  49 TORSION   3  2  5 11               3.1395369     179.8822159
  50 TORSION   3  2  5 12               1.0791952      61.8333328
  51 TORSION   3  2  4  9               1.0825410      62.0250294
  52 TORSION   4  2  6 15              -1.1093065     -63.5585802
  53 TORSION   4  2  6 14               0.9510363      54.4903681
  54 TORSION   4  2  5 10              -3.1167730    -178.5779384
  55 TORSION   4  2  6 13               3.1138036     178.4078057
  56 TORSION   4  2  5 12              -0.9539271     -54.6559945
  57 TORSION   4  2  5 11               1.1064146      63.3928887
  58 TORSION   5  2  6 15               1.1071274      63.4337280
  59 TORSION   5  2  6 14              -3.1157151    -178.5173236
  60 TORSION   5  2  4  7               0.9537852      54.6478664
  61 TORSION   5  2  6 13              -0.9529478     -54.5998861
  62 TORSION   5  2  4  9               3.1158633     178.5258139
  63 TORSION   5  2  4  8              -1.1064412     -63.3944130
  64 TORSION   6  2  4  7              -3.1130207    -178.3629494
  65 TORSION   6  2  5 10               0.9498725      54.4236833
  66 TORSION   6  2  5 11              -1.1101252     -63.6054896
  67 TORSION   6  2  5 12               3.1127184     178.3456273
  68 TORSION   6  2  4  9              -0.9509427     -54.4850018
  69 TORSION   6  2  4  8               1.1099381      63.5947712

          ********************
          1 ELECTRON INTEGRALS
          ********************
 TIME TO DO ORDINARY INTEGRALS=      0.02
 TIME TO DO      ECP INTEGRALS=      0.07
 ...... END OF ONE-ELECTRON INTEGRALS ......
 CPU     0: STEP CPU TIME=     0.09 TOTAL CPU TIME=        0.2 (    0.0 MIN)
 TOTAL WALL CLOCK TIME=        0.3 SECONDS, CPU UTILIZATION IS  60.71%

          -------------
          GUESS OPTIONS
          -------------
          GUESS =HUCKEL            NORB  =       0          NORDER=       0
          MIX   =       F          PRTMO =       F          PUNMO =       F
          TOLZ  = 1.0E-08          TOLE  = 1.0E-05
          SYMDEN=       F          PURIFY=       F

 INITIAL GUESS ORBITALS GENERATED BY HUCKEL   ROUTINE.
 HUCKEL GUESS REQUIRES    916545 WORDS.

 STATISTICS FOR GENERATION OF SYMMETRY ORBITAL -Q- MATRIX
 NUMBER OF CARTESIAN ATOMIC ORBITALS=        354
 NUMBER OF SPHERICAL CONTAMINANTS DROPPED=    38
 NUMBER OF LINEARLY DEPENDENT MOS DROPPED=     0
 TOTAL NUMBER OF MOS IN VARIATION SPACE=     316

 SYMMETRIES FOR INITIAL GUESS ORBITALS FOLLOW.   BOTH SET(S).
    29 ORBITALS ARE OCCUPIED (   13 CORE ORBITALS).
    14=A       15=A       16=A       17=A       18=A       19=A       20=A   
    21=A       22=A       23=A       24=A       25=A       26=A       27=A   
    28=A       29=A       30=A       31=A       32=A       33=A       34=A   
    35=A       36=A       37=A       38=A       39=A   
 ...... END OF INITIAL ORBITAL SELECTION ......
 CPU     0: STEP CPU TIME=     0.20 TOTAL CPU TIME=        0.4 (    0.0 MIN)
 TOTAL WALL CLOCK TIME=        0.8 SECONDS, CPU UTILIZATION IS  48.68%

                    ----------------------
                    AO INTEGRAL TECHNOLOGY
                    ----------------------
     S,P,L SHELL ROTATED AXIS INTEGRALS, REPROGRAMMED BY
        KAZUYA ISHIMURA (IMS) AND JOSE SIERRA (SYNSTAR).
     S,P,D,L SHELL ROTATED AXIS INTEGRALS PROGRAMMED BY
        KAZUYA ISHIMURA (INSTITUTE FOR MOLECULAR SCIENCE).
     S,P,D,F,G SHELL TO TOTAL QUARTET ANGULAR MOMENTUM SUM 5,
        ERIC PROGRAM BY GRAHAM FLETCHER (ELORET AND NASA ADVANCED
        SUPERCOMPUTING DIVISION, AMES RESEARCH CENTER).
     S,P,D,F,G,L SHELL GENERAL RYS QUADRATURE PROGRAMMED BY
        MICHEL DUPUIS (PACIFIC NORTHWEST NATIONAL LABORATORY).

          --------------------
          2 ELECTRON INTEGRALS
          --------------------

 DIRECT SCF METHOD SKIPS INTEGRAL STORAGE ON DISK.
 DIRECT TRANSFORMATION SKIPS AO INTEGRAL STORAGE ON DISK.
  ...... END OF TWO-ELECTRON INTEGRALS .....
 CPU     0: STEP CPU TIME=     0.01 TOTAL CPU TIME=        0.4 (    0.0 MIN)
 TOTAL WALL CLOCK TIME=        0.8 SECONDS, CPU UTILIZATION IS  49.35%

          --------------------------
                 RHF SCF CALCULATION
          --------------------------

     NUCLEAR ENERGY =       320.8003533872
     MAXIT =  200     NPUNCH=    2
     EXTRAP=T  DAMP=F  SHIFT=F  RSTRCT=F  DIIS=F  DEM=F  SOSCF=T
     DENSITY MATRIX CONV=  2.00E-06
     SOSCF WILL OPTIMIZE    8323 ORBITAL ROTATIONS, SOGTOL=   0.250
     MEMORY REQUIRED FOR RHF ITERS=    982670 WORDS.

 DIRECT SCF CALCULATION, SCHWRZ=T   FDIFF=F,  DIRTHR=  0.00E+00 NITDIR=10
 SCHWARZ INEQUALITY OVERHEAD:     62118 INTEGRALS, T=        0.01

                                                                                   NONZERO     BLOCKS
 ITER EX DEM     TOTAL ENERGY        E CHANGE  DENSITY CHANGE     ORB. GRAD      INTEGRALS    SKIPPED
   1  0  0     -563.4942486660  -563.4942486660   0.367740449   0.000000000     1413237028    4469435
          ---------------START SECOND ORDER SCF---------------
   2  1  0     -564.5545853677    -1.0603367017   0.105238525   0.058183389     1399425207    4799744
   3  2  0     -564.6221573846    -0.0675720169   0.047589970   0.025400564     1398030453    4801443
   4  3  0     -564.6419975485    -0.0198401639   0.010953944   0.004620274     1399243936    4788221
   5  4  0     -564.6426661625    -0.0006686139   0.004618846   0.002469113     1399426946    4785921
   6  5  0     -564.6428780526    -0.0002118902   0.000815712   0.000517795     1399523182    4783941
   7  6  0     -564.6428959693    -0.0000179167   0.000523776   0.000182150     1399514327    4784088
   8  7  0     -564.6428978901    -0.0000019207   0.000254829   0.000072614     1399520116    4784105
   9  8  0     -564.6428980777    -0.0000001876   0.000066875   0.000028871     1399523675    4784029
  10  9  0     -564.6428980998    -0.0000000221   0.000024759   0.000009015     1399523069    4784029
  11 10  0     -564.6428981038    -0.0000000041   0.000008248   0.000002915     1399524887    4784017
  12 11  0     -564.6428981045    -0.0000000006   0.000006022   0.000001408     1399524606    4784021
  13 12  0     -564.6428981046    -0.0000000001   0.000002528   0.000000433     1399523988    4784023
  14 13  0     -564.6428981046    -0.0000000000   0.000000736   0.000000112     1399523927    4784025

          -----------------
          DENSITY CONVERGED
          -----------------
     TIME TO FORM FOCK OPERATORS=      88.3 SECONDS (       6.3 SEC/ITER)
     FOCK TIME ON FIRST ITERATION=       6.5, LAST ITERATION=       6.3
     TIME TO SOLVE SCF EQUATIONS=       0.4 SECONDS (       0.0 SEC/ITER)

 FINAL RHF ENERGY IS     -564.6428981046 AFTER  14 ITERATIONS

          ------------
          EIGENVECTORS
          ------------

                      1          2          3          4          5
                  -80.4201   -20.9526   -11.5897   -11.5897   -11.5897
                     A          A          A          A          A   
    1  LA 1  S    0.000003  -0.000000   0.000000   0.000004   0.000005
    2  LA 1  X    0.000000   0.000000  -0.000003  -0.000004   0.000004
    3  LA 1  Y   -0.000001  -0.000002  -0.000005   0.000002  -0.000003
    4  LA 1  Z    0.000006   0.000007  -0.000001   0.000003   0.000002
    5  LA 1 XX    0.000001  -0.000012   0.000002  -0.000004  -0.000003
    6  LA 1 YY    0.000001  -0.000010  -0.000002  -0.000001  -0.000004
    7  LA 1 ZZ   -0.000003   0.000023  -0.000000   0.000005   0.000007
    8  LA 1 XY    0.000000  -0.000000   0.000002   0.000002  -0.000002
    9  LA 1 XZ   -0.000000   0.000001   0.000000   0.000001  -0.000000
   10  LA 1 YZ    0.000001  -0.000009  -0.000000  -0.000002  -0.000003
   11  LA 1 XX    0.000003   0.000033  -0.000006   0.000020   0.000020
   12  LA 1 YY    0.000002   0.000028   0.000006   0.000012   0.000021
   13  LA 1 ZZ   -0.000005  -0.000061  -0.000001  -0.000032  -0.000042
   14  LA 1 XY    0.000000   0.000001  -0.000003  -0.000004   0.000004
   15  LA 1 XZ   -0.000000  -0.000004  -0.000002  -0.000005  -0.000000
   16  LA 1 YZ    0.000002   0.000024  -0.000001   0.000013   0.000016
   17  LA 1  S   -0.000008  -0.000020  -0.000000  -0.000091  -0.000115
   18  LA 1  X   -0.000000  -0.000001  -0.000009  -0.000013   0.000007
   19  LA 1  Y    0.000000   0.000006  -0.000014   0.000016   0.000007
   20  LA 1  Z   -0.000001  -0.000025  -0.000003  -0.000040  -0.000054
   21  LA 1  S    0.000004   0.000026   0.000000   0.000134   0.000170
   22  LA 1  X    0.000000   0.000001   0.000021   0.000033  -0.000017
   23  LA 1  Y   -0.000000  -0.000006   0.000035  -0.000043  -0.000022
   24  LA 1  Z    0.000001   0.000025   0.000007   0.000117   0.000158
   25  LA 1  S   -0.000004   0.000013  -0.000000  -0.000002  -0.000003
   26  LA 1  X   -0.000000  -0.000000   0.000005   0.000006  -0.000006
   27  LA 1  Y    0.000003  -0.000000   0.000008  -0.000002   0.000005
   28  LA 1  Z   -0.000013   0.000001   0.000002  -0.000009  -0.000010
   29  LA 1 XX   -0.000002  -0.000012   0.000008  -0.000037  -0.000043
   30  LA 1 YY   -0.000002  -0.000010  -0.000017  -0.000023  -0.000045
   31  LA 1 ZZ    0.000003   0.000022   0.000009   0.000060   0.000088
   32  LA 1 XY   -0.000000  -0.000000   0.000002  -0.000000  -0.000002
   33  LA 1 XZ    0.000000   0.000001   0.000017   0.000028  -0.000013
   34  LA 1 YZ   -0.000001  -0.000009   0.000024  -0.000037  -0.000024
   35  P  2  S    1.000136   0.000073   0.000000   0.000084   0.000106
   36  P  2  S    0.000165   0.000449   0.000002   0.000597   0.000755
   37  P  2  S    0.000181   0.000592   0.000002   0.000929   0.001176
   38  P  2  S   -0.000937  -0.000178  -0.000001  -0.000294  -0.000372
   39  P  2  S   -0.000378  -0.002399   0.000001   0.000064   0.000080
   40  P  2  X   -0.000002  -0.000003   0.000280   0.000379  -0.000290
   41  P  2  Y    0.000014   0.000020   0.000468  -0.000243   0.000127
   42  P  2  Z   -0.000063  -0.000090   0.000095   0.000078   0.000224
   43  P  2  X   -0.000002  -0.000010   0.000740   0.001004  -0.000769
   44  P  2  Y    0.000012   0.000059   0.001240  -0.000641   0.000341
   45  P  2  Z   -0.000052  -0.000263   0.000252   0.000192   0.000574
   46  P  2  X    0.000001   0.000004  -0.000028  -0.000039   0.000029
   47  P  2  Y   -0.000007  -0.000025  -0.000047   0.000027  -0.000010
   48  P  2  Z    0.000032   0.000113  -0.000010  -0.000019  -0.000037
   49  P  2  X   -0.000003   0.000053  -0.000064  -0.000073   0.000078
   50  P  2  Y    0.000018  -0.000335  -0.000105  -0.000013  -0.000113
   51  P  2  Z   -0.000081   0.001485  -0.000019   0.000284   0.000330
   52  P  2 XX   -0.000003  -0.000066   0.000203  -0.000050   0.000109
   53  P  2 YY   -0.000003  -0.000056  -0.000229   0.000135  -0.000046
   54  P  2 ZZ    0.000006   0.000122   0.000026  -0.000086  -0.000063
   55  P  2 XY   -0.000000  -0.000002   0.000119   0.000155  -0.000121
   56  P  2 XZ    0.000000   0.000008   0.000085   0.000123  -0.000106
   57  P  2 YZ   -0.000002  -0.000049   0.000048  -0.000003   0.000055
   58  P  2 XX   -0.000022  -0.000009   0.000260   0.000075   0.000279
   59  P  2 YY   -0.000019  -0.000008  -0.000384   0.000318   0.000041
   60  P  2 ZZ    0.000040   0.000017   0.000124  -0.000393  -0.000319
   61  P  2 XY   -0.000001  -0.000000   0.000120   0.000142  -0.000104
   62  P  2 XZ    0.000003   0.000001   0.000264   0.000348  -0.000316
   63  P  2 YZ   -0.000016  -0.000007   0.000313  -0.000025   0.000271
   64  P  2 XXX   0.000001   0.000010   0.000020   0.000029  -0.000016
   65  P  2 YYY  -0.000006   0.000029   0.000029  -0.000067  -0.000058
   66  P  2 ZZZ  -0.000012  -0.000181  -0.000026  -0.000039  -0.000083
   67  P  2 XXY  -0.000000  -0.000161   0.000014   0.000035   0.000053
   68  P  2 XXZ   0.000010   0.000109   0.000010   0.000043   0.000074
   69  P  2 YYX   0.000000   0.000003   0.000005   0.000007  -0.000003
   70  P  2 YYZ   0.000007   0.000134   0.000026   0.000010   0.000037
   71  P  2 ZZX  -0.000001  -0.000017  -0.000032  -0.000046   0.000023
   72  P  2 ZZY   0.000008   0.000123  -0.000053   0.000055   0.000024
   73  P  2 XYZ   0.000000   0.000012   0.000014   0.000023  -0.000019
   74  P  2 XX    0.000001   0.000022  -0.000004   0.000003   0.000000
   75  P  2 YY    0.000001   0.000019   0.000004  -0.000001   0.000003
   76  P  2 ZZ   -0.000002  -0.000041   0.000000  -0.000002  -0.000003
   77  P  2 XY    0.000000   0.000001  -0.000002  -0.000003   0.000003
   78  P  2 XZ   -0.000000  -0.000003  -0.000001  -0.000001   0.000001
   79  P  2 YZ    0.000001   0.000016   0.000001   0.000001   0.000001
   80  O  3  S   -0.000000   0.975788  -0.000000   0.000028   0.000036
   81  O  3  S   -0.000000  -0.001111  -0.000000   0.000041   0.000053
   82  O  3  S    0.000005   0.043098  -0.000000  -0.000012  -0.000015
   83  O  3  S   -0.000060   0.004809   0.000001   0.000136   0.000171
   84  O  3  X    0.000000   0.000022  -0.000004  -0.000006   0.000004
   85  O  3  Y   -0.000000  -0.000129  -0.000007   0.000006   0.000001
   86  O  3  Z    0.000001   0.000573  -0.000001  -0.000011  -0.000015
   87  O  3  X   -0.000001  -0.000020   0.000010   0.000015  -0.000009
   88  O  3  Y    0.000004   0.000120   0.000017  -0.000016  -0.000004
   89  O  3  Z   -0.000017  -0.000534   0.000004   0.000033   0.000047
[...]
            144  C  4 XXZ     0.00083     0.07718
            145  C  4 YYX     0.00084     0.06907
            146  C  4 YYZ     0.00135     0.06650
            147  C  4 ZZX     0.00000     0.06982
            148  C  4 ZZY     0.00000     0.06681
            149  C  4 XYZ     0.00000     0.00299
            150  C  5  S      1.95556     1.55549
            151  C  5  S      0.82720     0.43100
            152  C  5  S      0.16172     0.27783
            153  C  5  S      0.32190     0.14873
            154  C  5  X      0.27241     0.21114
            155  C  5  Y      0.29431     0.22617
            156  C  5  Z      0.29345     0.22564
            157  C  5  X      0.51521     0.26577
            158  C  5  Y      0.53839     0.27935
            159  C  5  Z      0.53821     0.28007
            160  C  5  X      0.14087     0.18449
            161  C  5  Y      0.19370     0.20381
            162  C  5  Z      0.22727     0.20973
            163  C  5 XX      0.00523     0.08562
            164  C  5 YY      0.00526     0.08688
            165  C  5 ZZ      0.00421     0.08572
            166  C  5 XY      0.00423     0.00464
            167  C  5 XZ      0.00337     0.00457
            168  C  5 YZ      0.00000     0.00378
            169  C  5 XX      0.00843     0.09202
            170  C  5 YY      0.01273     0.09076
            171  C  5 ZZ      0.01144     0.08584
            172  C  5 XY      0.01026     0.02635
            173  C  5 XZ      0.00816     0.02521
            174  C  5 YZ      0.00000     0.01547
            175  C  5 XXX     0.00091     0.15926
            176  C  5 YYY     0.00073     0.17158
            177  C  5 ZZZ     0.00081     0.16826
            178  C  5 XXY     0.00127     0.07615
            179  C  5 XXZ     0.00087     0.07832
            180  C  5 YYX     0.00079     0.06891
            181  C  5 YYZ     0.00136     0.06680
            182  C  5 ZZX     0.00000     0.07015
            183  C  5 ZZY     0.00000     0.06667
            184  C  5 XYZ     0.00000     0.00292
            185  C  6  S      1.95556     1.55585
            186  C  6  S      0.82720     0.43303
            187  C  6  S      0.16172     0.27888
            188  C  6  S      0.32190     0.14961
            189  C  6  X      0.30095     0.22861
            190  C  6  Y      0.26040     0.20723
            191  C  6  Z      0.29883     0.22896
            192  C  6  X      0.54446     0.27964
            193  C  6  Y      0.50202     0.26646
            194  C  6  Z      0.54533     0.28011
            195  C  6  X      0.20552     0.20737
            196  C  6  Y      0.11360     0.17241
            197  C  6  Z      0.24273     0.21269
            198  C  6 XX      0.00568     0.08707
            199  C  6 YY      0.00600     0.09042
            200  C  6 ZZ      0.00356     0.08680
            201  C  6 XY      0.00433     0.00321
            202  C  6 XZ      0.00272     0.00457
            203  C  6 YZ      0.00000     0.00259
            204  C  6 XX      0.01061     0.08893
            205  C  6 YY      0.01485     0.10360
            206  C  6 ZZ      0.01017     0.08746
            207  C  6 XY      0.00868     0.02255
            208  C  6 XZ      0.00670     0.01987
            209  C  6 YZ      0.00000     0.01344
            210  C  6 XXX     0.00089     0.16280
            211  C  6 YYY     0.00095     0.16905
            212  C  6 ZZZ     0.00060     0.16663
            213  C  6 XXY     0.00141     0.07074
            214  C  6 XXZ     0.00094     0.07576
            215  C  6 YYX     0.00050     0.07861
            216  C  6 YYZ     0.00145     0.07291
            217  C  6 ZZX     0.00000     0.07419
            218  C  6 ZZY     0.00000     0.06403
            219  C  6 XYZ     0.00000     0.00268
            220  H  7  S      0.25368     0.19567
            221  H  7  S      0.45394     0.24574
            222  H  7  S      0.06486     0.12123
            223  H  7  X      0.00160     0.00207
            224  H  7  Y      0.00745     0.01098
            225  H  7  Z      0.00171     0.00220
            226  H  7  X      0.01053     0.02877
            227  H  7  Y      0.00494     0.04764
            228  H  7  Z      0.00885     0.02981
            229  H  7 XX      0.00032     0.06946
            230  H  7 YY      0.00065     0.11708
            231  H  7 ZZ      0.00100     0.07002
            232  H  7 XY      0.00009     0.00488
            233  H  7 XZ      0.00084     0.00015
            234  H  7 YZ      0.00000     0.00513
            235  H  8  S      0.24887     0.19142
            236  H  8  S      0.45026     0.24113
            237  H  8  S      0.05119     0.11613
            238  H  8  X      0.00162     0.00211
            239  H  8  Y      0.00186     0.00259
            240  H  8  Z      0.00730     0.01054
            241  H  8  X      0.00963     0.02905
            242  H  8  Y      0.00788     0.02910
            243  H  8  Z      0.00611     0.04763
            244  H  8 XX      0.00091     0.06830
            245  H  8 YY      0.00012     0.07079
            246  H  8 ZZ      0.00010     0.11271
            247  H  8 XY      0.00094     0.00021
            248  H  8 XZ      0.00079     0.00492
            249  H  8 YZ      0.00000     0.00541
            250  H  9  S      0.25367     0.18798
            251  H  9  S      0.45393     0.24370
            252  H  9  S      0.06481     0.12158
            253  H  9  X      0.00586     0.00773
            254  H  9  Y      0.00248     0.00354
            255  H  9  Z      0.00243     0.00342
            256  H  9  X      0.00983     0.04411
            257  H  9  Y      0.00715     0.03132
            258  H  9  Z      0.00734     0.03213
            259  H  9 XX      0.00048     0.09994
            260  H  9 YY      0.00090     0.07546
            261  H  9 ZZ      0.00063     0.07480
            262  H  9 XY      0.00064     0.00523
            263  H  9 XZ      0.00025     0.00528
            264  H  9 YZ      0.00000     0.00166
            265  H 10  S      0.25367     0.18730
            266  H 10  S      0.45392     0.24347
            267  H 10  S      0.06480     0.12155
            268  H 10  X      0.00561     0.00740
            269  H 10  Y      0.00246     0.00346
            270  H 10  Z      0.00269     0.00378
            271  H 10  X      0.01025     0.04357
            272  H 10  Y      0.00719     0.03121
            273  H 10  Z      0.00688     0.03287
            274  H 10 XX      0.00053     0.09799
            275  H 10 YY      0.00087     0.07483
            276  H 10 ZZ      0.00061     0.07690
            277  H 10 XY      0.00062     0.00494
            278  H 10 XZ      0.00028     0.00535
            279  H 10 YZ      0.00000     0.00193
            280  H 11  S      0.24887     0.19148
            281  H 11  S      0.45026     0.24109
            282  H 11  S      0.05119     0.11610
            283  H 11  X      0.00164     0.00219
            284  H 11  Y      0.00186     0.00259
            285  H 11  Z      0.00728     0.01049
            286  H 11  X      0.00998     0.02915
            287  H 11  Y      0.00789     0.02910
            288  H 11  Z      0.00575     0.04753
            289  H 11 XX      0.00089     0.06847
            290  H 11 YY      0.00013     0.07081
            291  H 11 ZZ      0.00010     0.11259
            292  H 11 XY      0.00095     0.00022
            293  H 11 XZ      0.00079     0.00493
            294  H 11 YZ      0.00000     0.00539
            295  H 12  S      0.25368     0.19567
            296  H 12  S      0.45394     0.24575
            297  H 12  S      0.06487     0.12122
            298  H 12  X      0.00160     0.00206
            299  H 12  Y      0.00745     0.01099
            300  H 12  Z      0.00172     0.00220
            301  H 12  X      0.01062     0.02886
            302  H 12  Y      0.00498     0.04769
            303  H 12  Z      0.00872     0.02970
            304  H 12 XX      0.00033     0.06948
            305  H 12 YY      0.00065     0.11709
            306  H 12 ZZ      0.00101     0.07000
            307  H 12 XY      0.00009     0.00486
            308  H 12 XZ      0.00083     0.00014
            309  H 12 YZ      0.00000     0.00514
            310  H 13  S      0.25368     0.18752
            311  H 13  S      0.45394     0.24298
            312  H 13  S      0.06485     0.12117
            313  H 13  X      0.00539     0.00688
            314  H 13  Y      0.00262     0.00396
            315  H 13  Z      0.00276     0.00392
            316  H 13  X      0.00455     0.04113
            317  H 13  Y      0.01277     0.03357
            318  H 13  Z      0.00700     0.03267
            319  H 13 XX      0.00052     0.09613
            320  H 13 YY      0.00073     0.07636
            321  H 13 ZZ      0.00072     0.07731
            322  H 13 XY      0.00060     0.00487
            323  H 13 XZ      0.00033     0.00524
            324  H 13 YZ      0.00000     0.00214
            325  H 14  S      0.25368     0.18830
            326  H 14  S      0.45393     0.24327
            327  H 14  S      0.06482     0.12119
            328  H 14  X      0.00564     0.00722
            329  H 14  Y      0.00265     0.00406
            330  H 14  Z      0.00249     0.00354
            331  H 14  X      0.00422     0.04188
            332  H 14  Y      0.01277     0.03372
            333  H 14  Z      0.00733     0.03176
            334  H 14 XX      0.00047     0.09819
            335  H 14 YY      0.00076     0.07707
            336  H 14 ZZ      0.00075     0.07512
            337  H 14 XY      0.00062     0.00518
            338  H 14 XZ      0.00030     0.00517
            339  H 14 YZ      0.00000     0.00185
            340  H 15  S      0.24886     0.19173
            341  H 15  S      0.45027     0.24121
            342  H 15  S      0.05119     0.11614
            343  H 15  X      0.00164     0.00211
            344  H 15  Y      0.00199     0.00305
            345  H 15  Z      0.00715     0.01021
            346  H 15  X      0.00804     0.02817
            347  H 15  Y      0.01134     0.03106
            348  H 15  Z      0.00424     0.04722
            349  H 15 XX      0.00085     0.06774
            350  H 15 YY      0.00019     0.07263
            351  H 15 ZZ      0.00011     0.11192
            352  H 15 XY      0.00077     0.00028
            353  H 15 XZ      0.00094     0.00504
            354  H 15 YZ      0.00000     0.00532

          ----- MULLIKEN ATOMIC OVERLAP POPULATIONS -----
          (OFF-DIAGONAL ELEMENTS NEED TO BE MULTIPLIED BY 2)

             1           2           3           4           5

    1    8.6318675
    2   -0.0030524  13.2018784
    3    0.0933281   0.3028731   8.2628244
    4   -0.0000726   0.3359631  -0.0242004   5.0280019
    5   -0.0000726   0.3359598  -0.0242039  -0.0328928   5.0280058
    6   -0.0000746   0.3359703  -0.0242058  -0.0328733  -0.0328769
    7    0.0002936  -0.0164425   0.0004168   0.3660883  -0.0025934
    8    0.0004628  -0.0117449   0.0013910   0.3539969   0.0001459
    9    0.0002907  -0.0164401   0.0004115   0.3661279   0.0025194
   10    0.0002903  -0.0164426   0.0004113   0.0025192   0.3661268
   11    0.0004627  -0.0117407   0.0013910   0.0001488   0.3539962
   12    0.0002938  -0.0164416   0.0004177  -0.0025966   0.3660845
   13    0.0002931  -0.0164384   0.0004151   0.0025212  -0.0026015
   14    0.0002915  -0.0164387   0.0004123  -0.0025994   0.0025202
   15    0.0004636  -0.0117578   0.0013909   0.0001471   0.0001510

             6           7           8           9          10

    6    5.0279560
    7    0.0025218   0.4908202
    8    0.0001478  -0.0126176   0.4689430
    9   -0.0025996  -0.0185701  -0.0126286   0.4907365
   10   -0.0025934  -0.0000075  -0.0000137  -0.0000782   0.4907183
   11    0.0001438  -0.0001246  -0.0001217  -0.0000135  -0.0126270
   12    0.0025218   0.0007827  -0.0001240  -0.0000076  -0.0185686
   13    0.3661068  -0.0000784  -0.0000140  -0.0000071   0.0007873
   14    0.3661190  -0.0000072  -0.0001239   0.0007891  -0.0000068
   15    0.3540011  -0.0000138  -0.0001260  -0.0001249  -0.0001263

            11          12          13          14          15

   11    0.4689414
   12   -0.0126197   0.4908376
   13   -0.0001224  -0.0000077   0.4907901
   14   -0.0000143  -0.0000783  -0.0185683   0.4907594
   15   -0.0001251  -0.0000134  -0.0126220  -0.0126280   0.4689567

          TOTAL MULLIKEN AND LOWDIN ATOMIC POPULATIONS
       ATOM         MULL.POP.    CHARGE          LOW.POP.     CHARGE
    1 LA            8.725066    2.274934         8.852638    2.147362
    2 P            14.375705    0.624295        14.291671    0.708329
    3 O             8.593073   -0.593073         8.290356   -0.290356
    4 C             6.360279   -0.360279         6.033956   -0.033956
    5 C             6.360268   -0.360268         6.035115   -0.035115
    6 C             6.360265   -0.360265         6.048790   -0.048790
    7 H             0.810468    0.189532         0.950841    0.049159
    8 H             0.787573    0.212427         0.932026    0.067974
    9 H             0.810406    0.189594         0.937854    0.062146
   10 H             0.810389    0.189611         0.936577    0.063423
   11 H             0.787575    0.212425         0.932135    0.067865
   12 H             0.810481    0.189519         0.950855    0.049145
   13 H             0.810454    0.189546         0.935857    0.064143
   14 H             0.810426    0.189574         0.937511    0.062489
   15 H             0.787573    0.212427         0.933820    0.066180

          MULLIKEN SPHERICAL HARMONIC POPULATIONS
       ATOM           S       P       D      F      G      H      I    TOTAL
    1 LA            2.02    6.52    0.18   0.00   0.00   0.00   0.00    8.73
    2 P             5.33    8.40    0.57   0.07   0.00   0.00   0.00   14.38
    3 O             3.41    5.14    0.04   0.00   0.00   0.00   0.00    8.59
    4 C             3.27    3.01    0.07   0.01   0.00   0.00   0.00    6.36
    5 C             3.27    3.01    0.07   0.01   0.00   0.00   0.00    6.36
    6 C             3.27    3.01    0.07   0.01   0.00   0.00   0.00    6.36
    7 H             0.77    0.04    0.00   0.00   0.00   0.00   0.00    0.81
    8 H             0.75    0.03    0.00   0.00   0.00   0.00   0.00    0.79
    9 H             0.77    0.04    0.00   0.00   0.00   0.00   0.00    0.81
   10 H             0.77    0.04    0.00   0.00   0.00   0.00   0.00    0.81
   11 H             0.75    0.03    0.00   0.00   0.00   0.00   0.00    0.79
   12 H             0.77    0.04    0.00   0.00   0.00   0.00   0.00    0.81
   13 H             0.77    0.04    0.00   0.00   0.00   0.00   0.00    0.81
   14 H             0.77    0.04    0.00   0.00   0.00   0.00   0.00    0.81
   15 H             0.75    0.03    0.00   0.00   0.00   0.00   0.00    0.79

          -------------------------------
          BOND ORDER AND VALENCE ANALYSIS     BOND ORDER THRESHOLD=0.050
          -------------------------------

                   BOND                       BOND                       BOND
  ATOM PAIR DIST  ORDER      ATOM PAIR DIST  ORDER      ATOM PAIR DIST  ORDER
    1   3  2.700  0.434        2   3  1.739  0.890        2   4  1.775  0.998
    2   5  1.775  0.998        2   6  1.775  0.998        4   7  1.089  0.881
    4   8  1.094  0.861        4   9  1.089  0.881        5  10  1.089  0.881
    5  11  1.094  0.861        5  12  1.089  0.881        6  13  1.089  0.881
    6  14  1.089  0.881        6  15  1.094  0.861

                       TOTAL       BONDED        FREE
      ATOM            VALENCE     VALENCE     VALENCE
    1 LA               -0.731       0.496      -1.227
    2 P                 4.676       4.261       0.415
    3 O                 2.382       1.363       1.019
    4 C                 3.929       3.634       0.295
    5 C                 3.929       3.634       0.295
    6 C                 3.929       3.634       0.295
    7 H                 0.980       0.928       0.051
    8 H                 0.970       0.919       0.051
    9 H                 0.980       0.928       0.051
   10 H                 0.980       0.928       0.051
   11 H                 0.970       0.919       0.051
   12 H                 0.980       0.928       0.051
   13 H                 0.980       0.928       0.051
   14 H                 0.980       0.928       0.051
   15 H                 0.970       0.919       0.051

          ---------------------
          ELECTROSTATIC MOMENTS
          ---------------------

 POINT   1           X           Y           Z (BOHR)    CHARGE
                -0.213439    1.416179   -4.409171        3.00 (A.U.)
         DX          DY          DZ         /D/  (DEBYE)
    -0.096390    0.605569   -2.699825    2.768584
 ...... END OF PROPERTY EVALUATION ......
 CPU     0: STEP CPU TIME=     0.21 TOTAL CPU TIME=     1288.5 (   21.5 MIN)
 TOTAL WALL CLOCK TIME=     1308.4 SECONDS, CPU UTILIZATION IS  98.48%
  $VIB   
          IVIB=   0 IATOM=   0 ICOORD=   0 E=     -565.5770136008
 -8.698406495E-07 7.532540832E-07 1.999086042E-07-2.558477260E-07 1.320729189E-05
 -5.554541369E-05 3.700476855E-06 4.259030892E-06-9.064720575E-06 1.647342848E-05
 -2.951529840E-05 9.071748935E-05-1.005708139E-05-3.091818148E-05 8.972756149E-05
  2.353177948E-06-1.116574642E-06 8.374169110E-05-1.300770483E-05-2.044355962E-06
 -3.883895080E-05-8.032367815E-06 9.324686491E-06-2.681909133E-06 1.795194054E-06
  1.481166249E-05-2.439715516E-05-4.319496124E-06 1.367701060E-05-2.474309316E-05
  6.435475512E-06 1.330718827E-05-2.309676979E-06 8.900459923E-06-1.673360062E-06
 -3.711499817E-05-1.392428203E-05 2.718001385E-06-3.274321570E-05 8.784740560E-06
  4.517024200E-06-2.936050670E-05 2.023667236E-06-1.130737976E-05-7.587010484E-06
 -9.638953725E-02 6.055690595E-01-2.699824519E+00
 ......END OF GEOMETRY SEARCH......
 CPU     0: STEP CPU TIME=     0.01 TOTAL CPU TIME=     1288.5 (   21.5 MIN)
 TOTAL WALL CLOCK TIME=     1308.4 SECONDS, CPU UTILIZATION IS  98.48%
               2991967  WORDS OF DYNAMIC MEMORY USED
 EXECUTION OF GAMESS TERMINATED NORMALLY Thu Jun  9 00:21:20 2016
 DDI: 44487344 bytes (42.4 MB / 5 MWords) used by master data server.

 ----------------------------------------
 CPU timing information for all processes
 ========================================
 0: 1286.454 + 2.202 = 1288.657
 1: 1285.902 + 2.49 = 1287.952
 2: 1285.474 + 2.103 = 1287.578
 3: 1285.830 + 2.104 = 1287.935
 4: 1286.685 + 2.134 = 1288.820
 5: 1285.581 + 2.164 = 1287.746
 6: 1286.985 + 2.117 = 1289.103
 7: 1286.572 + 2.112 = 1288.685
 8: 1286.610 + 2.173 = 1288.784
 9: 1287.672 + 2.20 = 1289.692
 10: 1287.256 + 2.58 = 1289.314
 11: 1286.92 + 2.54 = 1288.147
 12: 1286.511 + 2.80 = 1288.592
 13: 1287.168 + 2.75 = 1289.244
 14: 1287.77 + 2.107 = 1289.185
 15: 1285.608 + 1.605 = 1287.214
 16: 0.14 + 0.121 = 0.136
 17: 0.13 + 0.138 = 0.152
 18: 0.16 + 0.150 = 0.167
 19: 0.18 + 0.116 = 0.135
 20: 0.16 + 0.132 = 0.149
 21: 0.15 + 0.116 = 0.132
 22: 0.16 + 0.140 = 0.157
 23: 0.16 + 0.132 = 0.149
 24: 0.12 + 0.114 = 0.127
 25: 0.12 + 0.120 = 0.133
 26: 0.13 + 0.118 = 0.132
 27: 0.11 + 0.112 = 0.124
 28: 0.14 + 0.136 = 0.151
 29: 0.13 + 0.125 = 0.139
 30: 0.14 + 0.123 = 0.138
 31: 0.09 + 0.131 = 0.141
 ----------------------------------------
unset echo
----- accounting info -----
Files used on the master node node222 were:
-rw-r--r-- 1 fzahari quantum     1998 Jun  8 23:59 /local/scratch/fzahari/196570.share/bnd_var-270.F05
-rw-r--r-- 1 fzahari quantum 17178000 Jun  9 00:21 /local/scratch/fzahari/196570.share/bnd_var-270.F10
-rw-r--r-- 1 fzahari quantum        8 Jun  8 23:59 /local/scratch/fzahari/196570.share/bnd_var-270.nodes.mpd
ls: No match.
ls: No match.
ls: No match.
Thu Jun  9 00:21:23 CDT 2016
20584.325u 39.416s 21:52.83 1570.9%	0+0k 104+214568io 0pf+0w
