----- GAMESS execution script 'rungms' -----
This job is running on host node216
under operating system Linux at Wed Jun 8 23:03:55 CDT 2016
PBS has assigned the following compute nodes to this run:
node216
Available scratch disk space (Kbyte units) at beginning of the job is
Filesystem           1K-blocks      Used Available Use% Mounted on
/dev/sda7            2670838024   1078832 2534088408   1% /local
GAMESS temporary binary files will be written to /local/scratch/fzahari/196566.share
GAMESS supplementary output files will be written to /work1/quantum/fzahari/scr
Copying input file bnd_var-250.inp to your run's scratch directory...
cp bnd_var-250.inp /local/scratch/fzahari/196566.share/bnd_var-250.F05
unset echo
setenv I_MPI_WAIT_MODE enable
setenv I_MPI_PIN disable
setenv I_MPI_DEBUG 0
setenv I_MPI_STATS 0
setenv I_MPI_FABRICS dapl
setenv I_MPI_DAT_LIBRARY libdat2.so
unset echo
MPI kickoff will run GAMESS on 16 cores in 1 nodes.
The binary to be executed is /home/mschmidt/gamess/gamess.132.x
MPI will run 16 compute processes and 16 data servers,
    placing 16 of each process type onto each node.
The scratch disk space on each node is /local/scratch/fzahari/196566.share, with free space
Filesystem           1K-blocks      Used Available Use% Mounted on
/dev/sda7            2670838024   1078856 2534088384   1% /local
setenv I_MPI_HYDRA_ENV all
setenv I_MPI_PERHOST 32
unset echo
mpiexec.hydra -f /local/scratch/fzahari/196566.share/bnd_var-250.processes.mpd -n 32 /home/mschmidt/gamess/gamess.132.x
          ******************************************************
          *         GAMESS VERSION =  5 DEC 2014 (R1)          *
          *             FROM IOWA STATE UNIVERSITY             *
          * M.W.SCHMIDT, K.K.BALDRIDGE, J.A.BOATZ, S.T.ELBERT, *
          *   M.S.GORDON, J.H.JENSEN, S.KOSEKI, N.MATSUNAGA,   *
          *          K.A.NGUYEN, S.J.SU, T.L.WINDUS,           *
          *       TOGETHER WITH M.DUPUIS, J.A.MONTGOMERY       *
          *         J.COMPUT.CHEM.  14, 1347-1363(1993)        *
          **************** 64 BIT INTEL VERSION ****************

  SINCE 1993, STUDENTS AND POSTDOCS WORKING AT IOWA STATE UNIVERSITY
  AND ALSO IN THEIR VARIOUS JOBS AFTER LEAVING ISU HAVE MADE IMPORTANT
  CONTRIBUTIONS TO THE CODE:
     IVANA ADAMOVIC, CHRISTINE AIKENS, YURI ALEXEEV, POOJA ARORA,
     ANDREY ASADCHEV, ROB BELL, PRADIPTA BANDYOPADHYAY, JONATHAN BENTZ,
     BRETT BODE, KURT BRORSEN, CALEB CARLIN, GALINA CHABAN, WEI CHEN,
     CHEOL HO CHOI, PAUL DAY, ALBERT DEFUSCO, NUWAN DESILVA, TIM DUDLEY,
     DMITRI FEDOROV, GRAHAM FLETCHER, MARK FREITAG, KURT GLAESEMANN,
     DAN KEMP, GRANT MERRILL, NORIYUKI MINEZAWA, JONATHAN MULLIN,
     TAKESHI NAGATA, SEAN NEDD, HEATHER NETZLOFF, BOSILJKA NJEGIC, RYAN OLSON,
     MIKE PAK, SPENCER PRUITT, LUKE ROSKOP, JIM SHOEMAKER, LYUDMILA SLIPCHENKO,
     TONY SMITH, SAROM SOK, JIE SONG, TETSUYA TAKETSUGU, SIMON WEBB,
     PENG XU, SOOHAENG YOO, FEDERICO ZAHARIEV

  ADDITIONAL CODE HAS BEEN PROVIDED BY COLLABORATORS IN OTHER GROUPS:
     IOWA STATE UNIVERSITY:
          JOE IVANIC, AARON WEST, LAIMUTIS BYTAUTAS, KLAUS RUEDENBERG
     UNIVERSITY OF TOKYO: KIMIHIKO HIRAO, TAKAHITO NAKAJIMA,
          TAKAO TSUNEDA, MUNEAKI KAMIYA, SUSUMU YANAGISAWA,
          KIYOSHI YAGI, MAHITO CHIBA, SEIKEN TOKURA, NAOAKI KAWAKAMI
     UNIVERSITY OF AARHUS: FRANK JENSEN
     UNIVERSITY OF IOWA: VISVALDAS KAIRYS, HUI LI
     NATIONAL INST. OF STANDARDS AND TECHNOLOGY: WALT STEVENS, DAVID GARMER
     UNIVERSITY OF PISA: BENEDETTA MENNUCCI, JACOPO TOMASI
     UNIVERSITY OF MEMPHIS: HENRY KURTZ, PRAKASHAN KORAMBATH
     UNIVERSITY OF ALBERTA: TOBY ZENG, MARIUSZ KLOBUKOWSKI
     UNIVERSITY OF NEW ENGLAND: MARK SPACKMAN
     MIE UNIVERSITY: HIROAKI UMEDA
     NAT. INST. OF ADVANCED INDUSTRIAL SCIENCE AND TECHNOLOGY: KAZUO KITAURA
     MICHIGAN STATE UNIVERSITY:
          KAROL KOWALSKI, MARTA WLOCH, JEFFREY GOUR, JESSE LUTZ,
          WEI LI, PIOTR PIECUCH
     UNIVERSITY OF SILESIA: MONIKA MUSIAL, STANISLAW KUCHARSKI
     FACULTES UNIVERSITAIRES NOTRE-DAME DE LA PAIX:
          OLIVIER QUINET, BENOIT CHAMPAGNE
     UNIVERSITY OF CALIFORNIA - SANTA BARBARA: BERNARD KIRTMAN
     INSTITUTE FOR MOLECULAR SCIENCE:
          KAZUYA ISHIMURA, MICHIO KATOUDA, AND SHIGERU NAGASE
     UNIVERSITY OF NOTRE DAME: ANNA POMOGAEVA, DAN CHIPMAN
     KYUSHU UNIVERSITY:
          HARUYUKI NAKANO,
          FENG LONG GU, JACEK KORCHOWIEC, MARCIN MAKOWSKI, AND YURIKO AOKI,
          HIROTOSHI MORI AND EISAKU MIYOSHI
     PENNSYLVANIA STATE UNIVERSITY:
          TZVETELIN IORDANOV, CHET SWALINA, JONATHAN SKONE,
          SHARON HAMMES-SCHIFFER
     WASEDA UNIVERSITY:
          MASATO KOBAYASHI, TOMOKO AKAMA, TSUGUKI TOUMA,
          TAKESHI YOSHIKAWA, YASUHIRO IKABATA, HIROMI NAKAI
     NANJING UNIVERSITY: SHUHUA LI
     UNIVERSITY OF NEBRASKA:
          PEIFENG SU, DEJUN SI, NANDUN THELLAMUREGE, YALI WANG, HUI LI
     UNIVERSITY OF ZURICH: ROBERTO PEVERATI, KIM BALDRIDGE
     N. COPERNICUS UNIVERSITY AND JACKSON STATE UNIVERSITY:
          MARIA BARYSZ
     UNIVERSITY OF COPENHAGEN: CASPER STEINMANN
     TOKYO INSTITUTE OF TECHNOLOGY: HIROYA NAKATA
     NAGOYA UNIVERSITY: YOSHIO NISHIMOTO, STEPHAN IRLE


 PARALLEL VERSION RUNNING ON       16 PROCESSORS IN        1 NODES.

 EXECUTION OF GAMESS BEGUN Wed Jun  8 23:03:56 2016

            ECHO OF THE FIRST FEW INPUT CARDS -
 INPUT CARD> $ZMAT DLC=.T. AUTO=.T. $END                                                    
 INPUT CARD> $ZMAT IFZMAT(1)=1, 1 , 3  FVALUE(1)= 2.5 $END                                  
 INPUT CARD> $CONTRL COORD=UNIQUE NZVAR= 39 $END                                            
 INPUT CARD> $CONTRL ICHARG=+3 MULT=1                                                       
 INPUT CARD>         MPLEVL=2                                                               
 INPUT CARD>         SCFTYP=RHF                                                             
 INPUT CARD>         MAXIT=200 ISPHER=1 ICUT=11                                             
 INPUT CARD>         RUNTYP=OPTIMIZE                                                        
 INPUT CARD>         PP=READ                                                                
 INPUT CARD>         $END                                                                   
 INPUT CARD> $SCF    DIRSCF=.T. FDIFF=.F. $END                                              
 INPUT CARD> $TRANS  DIRTRF=.T. $END                                                        
 INPUT CARD> $SYSTEM MWORDS=300 MEMDDI=300 $END                                             
 INPUT CARD> $GUESS  GUESS=HUCKEL $END                                                      
 INPUT CARD> $BASIS  BASNAM(1)=METAL,                                                       
 INPUT CARD>                   LIGP,                                                        
 INPUT CARD>                   LIGO,                                                        
 INPUT CARD>                   LIGC,                                                        
 INPUT CARD>                   LIGC,                                                        
 INPUT CARD>                   LIGC,                                                        
 INPUT CARD>                   LIGH,                                                        
 INPUT CARD>                   LIGH,                                                        
 INPUT CARD>                   LIGH,                                                        
 INPUT CARD>                   LIGH,                                                        
 INPUT CARD>                   LIGH,                                                        
 INPUT CARD>                   LIGH,                                                        
 INPUT CARD>                   LIGH,                                                        
 INPUT CARD>                   LIGH,                                                        
 INPUT CARD>                   LIGH                                                         
 INPUT CARD> $END                                                                           
 INPUT CARD> $DATA                                                                          
 INPUT CARD>                                                                                
 INPUT CARD> C1                                                                             
 INPUT CARD> La 57.0 -0.1739353441 1.134168269 -4.0490164368                                
 INPUT CARD> P 15.0 -0.0263051179365 0.203265209597 0.101989091577                          
 INPUT CARD> O 8.0 -0.0881176409365 0.587506129497 -1.61102631642                           
 INPUT CARD> C 6.0 -1.47579701404 0.915720973397 0.837665966977                             
 INPUT CARD> C 6.0 1.46622183786 0.926009842897 0.734400279177                              
 INPUT CARD> C 6.0 -0.0153751385365 -1.5670148383 0.228751844777                            
 INPUT CARD> H 1.0 -1.47754568084 1.9985540444 0.724294568977                               
 INPUT CARD> H 1.0 -1.43906441774 0.679518195797 1.90555849088                              
 INPUT CARD> H 1.0 -2.38019160284 0.478015839397 0.418515451977                             
 INPUT CARD> H 1.0 2.34229032646 0.494042740697 0.253569997377                              
 INPUT CARD> H 1.0 1.50540763716 0.689447971797 1.80214330308                               
 INPUT CARD> H 1.0 1.45298469666 2.0087635177 0.621541276477                                
 INPUT CARD> H 1.0 0.866815361163 -1.9862061835 -0.252315460723                             
 INPUT CARD> H 1.0 -0.926756640237 -1.9930613263 -0.187447359923                            
 INPUT CARD> H 1.0 0.0241350501635 -1.8083616628 1.29532199868                              
 INPUT CARD> $END                                                                           
 INPUT CARD>!                                                                               
  300000000 WORDS OF MEMORY AVAILABLE

     BASIS OPTIONS
     -------------
     GBASIS=             IGAUSS=       0      POLAR=NONE    
     NDFUNC=       0     NFFUNC=       0     DIFFSP=       F
     NPFUNC=       0      DIFFS=       F     BASNAM=METAL   

 USING BASNAM FOR ATOM CUSTOMIZED BASIS CONSTRUCTION
     ----------------
     ATOM  BASIS NAME
     ----------------
       1   METAL   
       2   LIGP    
       3   LIGO    
       4   LIGC    
       5   LIGC    
       6   LIGC    
       7   LIGH    
       8   LIGH    
       9   LIGH    
      10   LIGH    
      11   LIGH    
      12   LIGH    
      13   LIGH    
      14   LIGH    
      15   LIGH    
 NOW LOCATING ALL   15 BASIS SETS IN YOUR INPUT FILE...
 FOUND BASIS SET  $METAL 
  SBKJC                        
                               
  $END                         
 FOUND BASIS SET  $LIGP  
  CCT                          
                               
  $END                         
 FOUND BASIS SET  $LIGO  
  CCT                          
                               
  $END                         
 FOUND BASIS SET  $LIGC  
  CCT                          
                               
  $END                         
 FOUND BASIS SET  $LIGH  
  CCT                          
                               
  $END                         
    5 UNIQUE ATOM CUSTOMIZED BASIS SETS WERE FOUND.

     SEARCHING FOR $MCP
     $MCP GROUP NOT FOUND


     RUN TITLE
     ---------
                                                                                 

 THE POINT GROUP OF THE MOLECULE IS C1      
 THE ORDER OF THE PRINCIPAL AXIS IS     0

 ATOM      ATOMIC                      COORDINATES (BOHR)
           CHARGE         X                   Y                   Z
 LA         57.0    -0.3286901399        2.1432672524       -7.6515315853
 P          15.0    -0.0497094650        0.3841155490        0.1927314368
 O           8.0    -0.1665181961        1.1102256009       -3.0443982970
 C           6.0    -2.7888519700        1.7304617209        1.5829591468
 C           6.0     2.7707575108        1.7499048650        1.3878152930
 C           6.0    -0.0290547989       -2.9612286631        0.4322783058
 H           1.0    -2.7921564711        3.7767195156        1.3687182698
 H           1.0    -2.7194374282        1.2841031937        3.6009834013
 H           1.0    -4.4979099276        0.9033189543        0.7908795259
 H           1.0     4.4262869007        0.9336054061        0.4791778137
 H           1.0     2.8448079341        1.3028677495        3.4055570334
 H           1.0     2.7457429410        3.7960126226        1.1745427026
 H           1.0     1.6380435145       -3.7533854419       -0.4768070832
 H           1.0    -1.7513161073       -3.7663397834       -0.3542241474
 H           1.0     0.0456086315       -3.4173080294        2.4478036434

          INTERNUCLEAR DISTANCES (ANGS.)
          ------------------------------

                1 LA         2 P          3 O          4 C          5 C     

   1 LA      0.0000000    4.2566680    2.5000000 *  5.0618404    5.0610790  
   2 P       4.2566680    0.0000000    1.7566683 *  1.7747790 *  1.7748072 *
   3 O       2.5000000 *  1.7566683 *  0.0000000    2.8336325 *  2.8340046 *
   4 C       5.0618404    1.7747790 *  2.8336325 *  0.0000000    2.9438486 *
   5 C       5.0610790    1.7748072 *  2.8340046 *  2.9438486 *  0.0000000  
   6 C       5.0617026    1.7748464 *  2.8340846 *  2.9440764 *  2.9438040 *
   7 H       5.0230529    2.3909047 *  3.0619096    1.0887532 *  3.1330848  
   8 H       6.1044427    2.3399932 *  3.7682744    1.0943196 *  3.1421422  
   9 H       5.0256287    2.3909116 *  3.0634345    1.0886701 *  3.8852771  
  10 H       5.0252763    2.3911865 *  3.0646921    3.8854564    1.0887099 *
  11 H       6.1036087    2.3394534 *  3.7682147    3.1414960    1.0943364 *
  12 H       5.0225387    2.3912459 *  3.0625687    3.1335625    1.0887001 *
  13 H       5.0234288    2.3910209 *  3.0630030    3.8854953    3.1327142  
  14 H       5.0257358    2.3913253 *  3.0641835    3.1326214    3.8855020  
  15 H       6.1040698    2.3394936 *  3.7682415    3.1432263    3.1418203  

                6 C          7 H          8 H          9 H         10 H     

   1 LA      5.0617026    5.0230529    6.1044427    5.0256287    5.0252763  
   2 P       1.7748464 *  2.3909047 *  2.3399932 *  2.3909116 *  2.3911865 *
   3 O       2.8340846 *  3.0619096    3.7682744    3.0634345    3.0646921  
   4 C       2.9440764 *  1.0887532 *  1.0943196 *  1.0886701 *  3.8854564  
   5 C       2.9438040 *  3.1330848    3.1421422    3.8852771    1.0887099 *
   6 C       0.0000000    3.8854584    3.1441187    3.1321746    3.1316387  
   7 H       3.8854584    0.0000000    1.7710790 *  1.7945214 *  4.1323459  
   8 H       3.1441187    1.7710790 *  0.0000000    1.7713330 *  4.1306308  
   9 H       3.1321746    1.7945214 *  1.7713330 *  0.0000000    4.7253888  
  10 H       3.1316387    4.1323459    4.1306308    4.7253888    0.0000000  
  11 H       3.1432412    3.4312574    2.9463043 *  4.1300134    1.7710548 *
  12 H       3.8854285    2.9323490 *  3.4321337    4.1325112    1.7946159 *
  13 H       1.0887641 *  4.7252629    4.1327458    4.1310360    2.9299456 *
  14 H       1.0887395 *  4.1312995    3.4330473    2.9301683 *  4.1312045  
  15 H       1.0942492 *  4.1320364    2.9500657 *  3.4317777    3.4293086  

               11 H         12 H         13 H         14 H         15 H     

   1 LA      6.1036087    5.0225387    5.0234288    5.0257358    6.1040698  
   2 P       2.3394534 *  2.3912459 *  2.3910209 *  2.3913253 *  2.3394936 *
   3 O       3.7682147    3.0625687    3.0630030    3.0641835    3.7682415  
   4 C       3.1414960    3.1335625    3.8854953    3.1326214    3.1432263  
   5 C       1.0943364 *  1.0887001 *  3.1327142    3.8855020    3.1418203  
   6 C       3.1432412    3.8854285    1.0887641 *  1.0887395 *  1.0942492 *
   7 H       3.4312574    2.9323490 *  4.7252629    4.1312995    4.1320364  
   8 H       2.9463043 *  3.4321337    4.1327458    3.4330473    2.9500657 *
   9 H       4.1300134    4.1325112    4.1310360    2.9301683 *  3.4317777  
  10 H       1.7710548 *  1.7946159 *  2.9299456 *  4.1312045    3.4293086  
  11 H       0.0000000    1.7712038 *  3.4333258    4.1315554    2.9478957 *
  12 H       1.7712038 *  0.0000000    4.1312229    4.7256993    4.1311060  
  13 H       3.4333258    4.1312229    0.0000000    1.7947578 *  1.7711354 *
  14 H       4.1315554    4.7256993    1.7947578 *  0.0000000    1.7711335 *
  15 H       2.9478957 *  4.1311060    1.7711354 *  1.7711335 *  0.0000000  

  * ... LESS THAN  3.000


     ATOMIC BASIS SET
     ----------------
 THE CONTRACTED PRIMITIVE FUNCTIONS HAVE BEEN UNNORMALIZED
 THE CONTRACTED BASIS FUNCTIONS ARE NOW NORMALIZED TO UNITY

  SHELL TYPE  PRIMITIVE        EXPONENT          CONTRACTION COEFFICIENT(S)

 LA        

      1   L       1             9.1730000   -0.054833023521   -0.009797991527
      1   L       2             3.1200000    0.676604290237    0.231261800020
      1   L       3             2.1040000   -1.034429443730   -0.601214480110
      1   L       4             1.3200000   -0.518907222591    0.195188831214
      1   L       5             0.4960000    1.631603699894    1.076136069429

      2   D       6             1.2380000   -0.053797021791
      2   D       7             0.6061000    0.380144153981
      2   D       8             0.2518000    0.720349291785

      3   D       9             0.0978700    1.000000000000

      4   L      10             0.6182000   -0.107095028128   -0.051868986063
      4   L      11             0.0454600    1.033448271434    1.008107729120

      5   L      12             0.0177500    1.000000000000    1.000000000000

      6   L      13             0.2004000    1.000000000000    1.000000000000

      7   D      14             0.0353600    1.000000000000

 P         

      8   S      15        312400.0000000    0.000057689641
      8   S      16         46800.0000000    0.000448246591
      8   S      17         10650.0000000    0.002349131061
      8   S      18          3018.0000000    0.009781571802
      8   S      19           986.8000000    0.034142936511
      8   S      20           357.4000000    0.100192955985
      8   S      21           139.6000000    0.234346168617
      8   S      22            57.6300000    0.382391849918
      8   S      23            24.6000000    0.318052941833
      8   S      24            10.1200000    0.070770999093
      8   S      25             4.2830000   -0.001817789630
      8   S      26             1.8050000    0.002161561737
      8   S      27             0.2782000    0.000432249354

      9   S      28        312400.0000000   -0.000016380204
      9   S      29         46800.0000000   -0.000127233535
      9   S      30         10650.0000000   -0.000668625166
      9   S      31          3018.0000000   -0.002795303744
      9   S      32           986.8000000   -0.009928227435
      9   S      33           357.4000000   -0.030244566456
      9   S      34           139.6000000   -0.077884705328
      9   S      35            57.6300000   -0.156724571545
      9   S      36            24.6000000   -0.198042753651
      9   S      37            10.1200000    0.037971251521
      9   S      38             4.2830000    0.552751544147
      9   S      39             1.8050000    0.542611452452
      9   S      40             0.2782000   -0.009675942874

     10   S      41        312400.0000000    0.000006865735
     10   S      42         46800.0000000    0.000053281983
     10   S      43         10650.0000000    0.000280421002
     10   S      44          3018.0000000    0.001170789768
     10   S      45           986.8000000    0.004173591138
     10   S      46           357.4000000    0.012720496749
     10   S      47           139.6000000    0.033152766352
     10   S      48            57.6300000    0.067671246836
     10   S      49            24.6000000    0.089831018862
     10   S      50            10.1200000   -0.020305232360
     10   S      51             4.2830000   -0.313280408979
     10   S      52             1.8050000   -0.563687905527
     10   S      53             0.2782000    1.117494073734

     11   S      54             0.6158000    1.000000000000

     12   S      55             0.1055000    1.000000000000

     13   P      56           504.9000000    0.002433660431
     13   P      57           119.4000000    0.019305559477
     13   P      58            37.9600000    0.088473106893
     13   P      59            13.9500000    0.254701981099
     13   P      60             5.4570000    0.440199242653
     13   P      61             2.1770000    0.383632006272
     13   P      62             0.2877000   -0.003946337074

     14   P      63           504.9000000   -0.000954298933
     14   P      64           119.4000000   -0.007664025747
     14   P      65            37.9600000   -0.035465925259
     14   P      66            13.9500000   -0.106164716437
     14   P      67             5.4570000   -0.187210586037
     14   P      68             2.1770000   -0.181495819791
     14   P      69             0.2877000    0.991672644618

     15   P      70             0.8010000    1.000000000000

     16   P      71             0.0971400    1.000000000000

     17   D      72             0.6480000    1.000000000000

     18   D      73             0.2180000    1.000000000000

     19   F      74             0.4520000    1.000000000000

     20   D      75             3.1200000    1.000000000000

 O         

     21   S      76         15330.0000000    0.000520198307
     21   S      77          2299.0000000    0.004023344781
     21   S      78           522.4000000    0.020729083329
     21   S      79           147.3000000    0.081082327080
     21   S      80            47.5500000    0.236226352118
     21   S      81            16.7600000    0.443518209420
     21   S      82             6.2070000    0.358670588689
     21   S      83             0.6882000   -0.008349797237

     22   S      84         15330.0000000   -0.000197236012
     22   S      85          2299.0000000   -0.001535010700
     22   S      86           522.4000000   -0.007951183914
     22   S      87           147.3000000   -0.032113452892
     22   S      88            47.5500000   -0.100269643049
     22   S      89            16.7600000   -0.234047111838
     22   S      90             6.2070000   -0.301410927756
     22   S      91             0.6882000    1.034919649508

     23   S      92             1.7520000    1.000000000000

     24   S      93             0.2384000    1.000000000000

     25   P      94            34.4600000    0.041163489568
     25   P      95             7.7490000    0.257762835858
     25   P      96             2.2800000    0.802419274427

     26   P      97             0.7156000    1.000000000000

     27   P      98             0.2140000    1.000000000000

     28   D      99             2.3140000    1.000000000000

     29   D     100             0.6450000    1.000000000000

     30   F     101             1.4280000    1.000000000000

 C         

     31   S     102          8236.0000000    0.000542430189
     31   S     103          1235.0000000    0.004196427901
     31   S     104           280.8000000    0.021540914108
     31   S     105            79.2700000    0.083614949614
     31   S     106            25.5900000    0.239871618922
     31   S     107             8.9970000    0.443751820060
     31   S     108             3.3190000    0.353579696469
     31   S     109             0.3643000   -0.009176366076

     32   S     110          8236.0000000   -0.000196392234
     32   S     111          1235.0000000   -0.001525950274
     32   S     112           280.8000000   -0.007890449028
     32   S     113            79.2700000   -0.031514870532
     32   S     114            25.5900000   -0.096910008320
     32   S     115             8.9970000   -0.220541526288
     32   S     116             3.3190000   -0.296069112937
     32   S     117             0.3643000    1.040503432950

     33   S     118             0.9059000    1.000000000000

     34   S     119             0.1285000    1.000000000000

     35   P     120            18.7100000    0.039426387165
     35   P     121             4.1330000    0.244088984924
     35   P     122             1.2000000    0.815492008943

     36   P     123             0.3827000    1.000000000000

     37   P     124             0.1209000    1.000000000000

     38   D     125             1.0970000    1.000000000000

     39   D     126             0.3180000    1.000000000000

     40   F     127             0.7610000    1.000000000000

 C         

     41   S     128          8236.0000000    0.000542430189
     41   S     129          1235.0000000    0.004196427901
     41   S     130           280.8000000    0.021540914108
     41   S     131            79.2700000    0.083614949614
     41   S     132            25.5900000    0.239871618922
     41   S     133             8.9970000    0.443751820060
     41   S     134             3.3190000    0.353579696469
     41   S     135             0.3643000   -0.009176366076

     42   S     136          8236.0000000   -0.000196392234
     42   S     137          1235.0000000   -0.001525950274
     42   S     138           280.8000000   -0.007890449028
     42   S     139            79.2700000   -0.031514870532
     42   S     140            25.5900000   -0.096910008320
     42   S     141             8.9970000   -0.220541526288
     42   S     142             3.3190000   -0.296069112937
     42   S     143             0.3643000    1.040503432950

     43   S     144             0.9059000    1.000000000000

     44   S     145             0.1285000    1.000000000000

     45   P     146            18.7100000    0.039426387165
     45   P     147             4.1330000    0.244088984924
     45   P     148             1.2000000    0.815492008943

     46   P     149             0.3827000    1.000000000000

     47   P     150             0.1209000    1.000000000000

     48   D     151             1.0970000    1.000000000000

     49   D     152             0.3180000    1.000000000000

     50   F     153             0.7610000    1.000000000000

 C         

     51   S     154          8236.0000000    0.000542430189
     51   S     155          1235.0000000    0.004196427901
     51   S     156           280.8000000    0.021540914108
     51   S     157            79.2700000    0.083614949614
     51   S     158            25.5900000    0.239871618922
     51   S     159             8.9970000    0.443751820060
     51   S     160             3.3190000    0.353579696469
     51   S     161             0.3643000   -0.009176366076

     52   S     162          8236.0000000   -0.000196392234
     52   S     163          1235.0000000   -0.001525950274
     52   S     164           280.8000000   -0.007890449028
     52   S     165            79.2700000   -0.031514870532
     52   S     166            25.5900000   -0.096910008320
     52   S     167             8.9970000   -0.220541526288
     52   S     168             3.3190000   -0.296069112937
     52   S     169             0.3643000    1.040503432950

     53   S     170             0.9059000    1.000000000000

     54   S     171             0.1285000    1.000000000000

     55   P     172            18.7100000    0.039426387165
     55   P     173             4.1330000    0.244088984924
     55   P     174             1.2000000    0.815492008943

     56   P     175             0.3827000    1.000000000000

     57   P     176             0.1209000    1.000000000000

     58   D     177             1.0970000    1.000000000000

     59   D     178             0.3180000    1.000000000000

     60   F     179             0.7610000    1.000000000000

 H         

     61   S     180            33.8700000    0.025494863235
     61   S     181             5.0950000    0.190362765893
     61   S     182             1.1590000    0.852162022245

     62   S     183             0.3258000    1.000000000000

     63   S     184             0.1027000    1.000000000000

     64   P     185             1.4070000    1.000000000000

     65   P     186             0.3880000    1.000000000000

     66   D     187             1.0570000    1.000000000000

 H         

     67   S     188            33.8700000    0.025494863235
     67   S     189             5.0950000    0.190362765893
     67   S     190             1.1590000    0.852162022245

     68   S     191             0.3258000    1.000000000000

     69   S     192             0.1027000    1.000000000000

     70   P     193             1.4070000    1.000000000000

     71   P     194             0.3880000    1.000000000000

     72   D     195             1.0570000    1.000000000000

 H         

     73   S     196            33.8700000    0.025494863235
     73   S     197             5.0950000    0.190362765893
     73   S     198             1.1590000    0.852162022245

     74   S     199             0.3258000    1.000000000000

     75   S     200             0.1027000    1.000000000000

     76   P     201             1.4070000    1.000000000000

     77   P     202             0.3880000    1.000000000000

     78   D     203             1.0570000    1.000000000000

 H         

     79   S     204            33.8700000    0.025494863235
     79   S     205             5.0950000    0.190362765893
     79   S     206             1.1590000    0.852162022245

     80   S     207             0.3258000    1.000000000000

     81   S     208             0.1027000    1.000000000000

     82   P     209             1.4070000    1.000000000000

     83   P     210             0.3880000    1.000000000000

     84   D     211             1.0570000    1.000000000000

 H         

     85   S     212            33.8700000    0.025494863235
     85   S     213             5.0950000    0.190362765893
     85   S     214             1.1590000    0.852162022245

     86   S     215             0.3258000    1.000000000000

     87   S     216             0.1027000    1.000000000000

     88   P     217             1.4070000    1.000000000000

     89   P     218             0.3880000    1.000000000000

     90   D     219             1.0570000    1.000000000000

 H         

     91   S     220            33.8700000    0.025494863235
     91   S     221             5.0950000    0.190362765893
     91   S     222             1.1590000    0.852162022245

     92   S     223             0.3258000    1.000000000000

     93   S     224             0.1027000    1.000000000000

     94   P     225             1.4070000    1.000000000000

     95   P     226             0.3880000    1.000000000000

     96   D     227             1.0570000    1.000000000000

 H         

     97   S     228            33.8700000    0.025494863235
     97   S     229             5.0950000    0.190362765893
     97   S     230             1.1590000    0.852162022245

     98   S     231             0.3258000    1.000000000000

     99   S     232             0.1027000    1.000000000000

    100   P     233             1.4070000    1.000000000000

    101   P     234             0.3880000    1.000000000000

    102   D     235             1.0570000    1.000000000000

 H         

    103   S     236            33.8700000    0.025494863235
    103   S     237             5.0950000    0.190362765893
    103   S     238             1.1590000    0.852162022245

    104   S     239             0.3258000    1.000000000000

    105   S     240             0.1027000    1.000000000000

    106   P     241             1.4070000    1.000000000000

    107   P     242             0.3880000    1.000000000000

    108   D     243             1.0570000    1.000000000000

 H         

    109   S     244            33.8700000    0.025494863235
    109   S     245             5.0950000    0.190362765893
    109   S     246             1.1590000    0.852162022245

    110   S     247             0.3258000    1.000000000000

    111   S     248             0.1027000    1.000000000000

    112   P     249             1.4070000    1.000000000000

    113   P     250             0.3880000    1.000000000000

    114   D     251             1.0570000    1.000000000000

 TOTAL NUMBER OF BASIS SET SHELLS             =  114
 NUMBER OF CARTESIAN GAUSSIAN BASIS FUNCTIONS =  354
 NOTE: THIS RUN WILL RESTRICT THE MO VARIATION SPACE TO SPHERICAL HARMONICS.
 THE NUMBER OF ORBITALS KEPT IN THE VARIATIONAL SPACE WILL BE PRINTED LATER.
 NUMBER OF ELECTRONS                          =  104
 CHARGE OF MOLECULE                           =    3
 SPIN MULTIPLICITY                            =    1
 NUMBER OF OCCUPIED ORBITALS (ALPHA)          =   52
 NUMBER OF OCCUPIED ORBITALS (BETA )          =   52
 TOTAL NUMBER OF ATOMS                        =   15
 THE NUCLEAR REPULSION ENERGY IS      615.4420456482
 NOTE THIS RUN IS USING CORE POTENTIALS, AND THE NUMBER OF ELECTRONS,
 OCCUPIED ORBITALS, AND NUCLEAR REPULSION ENERGY WILL BE ADJUSTED BELOW
 AFTER REMOVAL OF THE CORE CHARGES.

     $CONTRL OPTIONS
     ---------------
 SCFTYP=RHF          RUNTYP=OPTIMIZE     EXETYP=RUN     
 MPLEVL=       2     CITYP =NONE         CCTYP =NONE         VBTYP =NONE    
 DFTTYP=NONE         TDDFT =NONE    
 MULT  =       1     ICHARG=       3     NZVAR =      39     COORD =UNIQUE  
 PP    =READ         RELWFN=NONE         LOCAL =NONE         NUMGRD=       F
 ISPHER=       1     NOSYM =       0     MAXIT =     200     UNITS =ANGS    
 PLTORB=       F     MOLPLT=       F     AIMPAC=       F     FRIEND=        
 NPRINT=       7     IREST =       0     GEOM  =INPUT   
 NORMF =       0     NORMP =       0     ITOL  =      20     ICUT  =      11
 INTTYP=BEST         GRDTYP=BEST         QMTTOL= 1.0E-06

     $SYSTEM OPTIONS
     ---------------
  REPLICATED MEMORY=   300000000 WORDS (ON EVERY NODE).
 DISTRIBUTED MEMDDI=         300 MILLION WORDS IN AGGREGATE,
 MEMDDI DISTRIBUTED OVER  16 PROCESSORS IS    18750000 WORDS/PROCESSOR.
 TOTAL MEMORY REQUESTED ON EACH PROCESSOR=   318750000 WORDS.
 TIMLIM=      525600.00 MINUTES, OR     365.0 DAYS.
 PARALL= T  BALTYP=  DLB     KDIAG=    0  COREFL= F
 MXSEQ2=     300 MXSEQ3=     150  mem10=         0

          --------------
          ECP POTENTIALS
          --------------

 PARAMETERS FOR "LA-ECP  " ON ATOM    1 WITH ZCORE  46 AND LMAX  4 ARE
 FOR L= 4      COEFF    N           ZETA
    1       -2.85665    1        1.42345
 FOR L= 0      COEFF    N           ZETA
    1        8.85347    0       22.29739
    2      -68.41778    2        1.64320
    3      110.12463    2        1.85122
 FOR L= 1      COEFF    N           ZETA
    1        2.98675    0        1.77635
    2      -35.51815    2        3.98941
    3       53.65423    2        2.47524
 FOR L= 2      COEFF    N           ZETA
    1        1.67298    0        1.52169
    2       18.46625    2        1.52182
 FOR L= 3      COEFF    N           ZETA
    1       -4.64430    1        2.67762
    2      -14.43101    1       10.06608

 THE ECP RUN REMOVES   46 CORE ELECTRONS, AND THE SAME NUMBER OF PROTONS.
 NUMBER OF ELECTRONS KEPT IN THE CALCULATION IS =   58
 NUMBER OF OCCUPIED ORBITALS (ALPHA) KEPT IS    =   29
 NUMBER OF OCCUPIED ORBITALS (BETA ) KEPT IS    =   29
 THE ADJUSTED NUCLEAR REPULSION ENERGY=      324.1688996003
          ECP ANGULAR INTS.........     0.02 SECONDS

          ----------------
          PROPERTIES INPUT
          ----------------

     MOMENTS            FIELD           POTENTIAL          DENSITY
 IEMOM =       1   IEFLD =       0   IEPOT =       0   IEDEN =       0
 WHERE =COMASS     WHERE =NUCLEI     WHERE =NUCLEI     WHERE =NUCLEI  
 OUTPUT=BOTH       OUTPUT=BOTH       OUTPUT=BOTH       OUTPUT=BOTH    
 IEMINT=       0   IEFINT=       0                     IEDINT=       0
                                                       MORB  =       0
          EXTRAPOLATION IN EFFECT
          SOSCF IN EFFECT
 ORBITAL PRINTING OPTION: NPREO=     1   354     2     1

     -------------------------------
     INTEGRAL TRANSFORMATION OPTIONS
     -------------------------------
     NWORD  =            0
     CUTOFF = 1.0E-09     MPTRAN =       0
     DIRTRF =       T     AOINTS =DUP     

          ----------------------
          INTEGRAL INPUT OPTIONS
          ----------------------
 NOPK  =       1 NORDER=       0 SCHWRZ=       T

          -----------------------
          MP2 CONTROL INFORMATION
          -----------------------
          NACORE =       13  NBCORE =       13
          LMOMP2 =        F  AOINTS = DUP     
          METHOD =        2  NWORD  =               0
          MP2PRP =        F  OSPT   = NONE    
          CUTOFF = 1.00E-09  CPHFBS = BASISAO 
          CODE   = DDI     

          NUMBER OF CORE -A-  ORBITALS =    13
          NUMBER OF CORE -B-  ORBITALS =    13
          NUMBER OF OCC. -A-  ORBITALS =    29
          NUMBER OF OCC. -B-  ORBITALS =    29
          NUMBER OF MOLECULAR ORBITALS =   354
          NUMBER OF   BASIS  FUNCTIONS =   354

 
 
 -----------------------------------------------
  STATISTICS ON AUTOMATIC COORDINATE GENERATION 
 -----------------------------------------------
  NUMBER OF USER SPECIFIED BONDS                              0
  NUMBER OF BONDS                                            14
  NUMBER OF ANGLES                                           25
  NUMBER OF TORSIONS                                         30
  NUMBER OF EXTRA COORD.                                      0
  NUMBER OF EXTRA COORD. FOR CONSTRAINTS                      0
  NUMBER OF CONSTRAINED COORD.                                1
 
  TOTAL NUMBER OF PRIMITIVES                                 69
 -----------------------------------------------

   --- ENCODED Z MATRIX ---
 COORD  TYPE   I   J   K   L   M   N
    1      1    1   3
    2      1    2   4
    3      1    2   3
    4      1    2   6
    5      1    2   5
    6      1    4   8
    7      1    4   7
    8      1    4   9
    9      1    5  12
   10      1    5  11
   11      1    5  10
   12      1    6  15
   13      1    6  14
   14      1    6  13
   15      2    1   3   2
   16      2    2   5  11
   17      2    2   4   8
   18      2    2   6  13
   19      2    2   6  14
   20      2    2   4   9
   21      2    2   5  12
   22      2    2   5  10
   23      2    2   4   7
   24      2    2   6  15
   25      2    3   2   4
   26      2    3   2   5
   27      2    3   2   6
   28      2    4   2   6
   29      2    4   2   5
   30      2    5   2   6
   31      2    7   4   9
   32      2    7   4   8
   33      2    8   4   9
   34      2   10   5  11
   35      2   10   5  12
   36      2   11   5  12
   37      2   13   6  14
   38      2   13   6  15
   39      2   14   6  15
   40      3    1   3   2   5
   41      3    1   3   2   4
   42      3    1   3   2   6
   43      3    3   2   4   8
   44      3    3   2   6  15
   45      3    3   2   6  14
   46      3    3   2   4   7
   47      3    3   2   5  10
   48      3    3   2   6  13
   49      3    3   2   5  11
   50      3    3   2   5  12
   51      3    3   2   4   9
   52      3    4   2   6  15
   53      3    4   2   6  14
   54      3    4   2   5  10
   55      3    4   2   6  13
   56      3    4   2   5  12
   57      3    4   2   5  11
   58      3    5   2   6  15
   59      3    5   2   6  14
   60      3    5   2   4   7
   61      3    5   2   6  13
   62      3    5   2   4   9
   63      3    5   2   4   8
   64      3    6   2   4   7
   65      3    6   2   5  10
   66      3    6   2   5  11
   67      3    6   2   5  12
   68      3    6   2   4   9
   69      3    6   2   4   8

          INDEP./SYM. INTERNAL COORDINATES
          --------------------------------
 CRD  1=   1.0000 (  1)
 CRD  2=   0.1261 ( 20)  0.1215 ( 22)  0.1257 ( 24)  0.1621 ( 25)  0.2176 ( 26)
          -0.3797 ( 27)  0.2793 ( 28) -0.4874 ( 29)  0.2081 ( 30)  0.1766 ( 40)
          -0.1944 ( 41) -0.1353 ( 46)  0.1291 ( 50) -0.1056 ( 51)  0.1228 ( 52)
           0.1627 ( 53) -0.1395 ( 58) -0.1689 ( 61) -0.1254 ( 65) -0.1561 ( 66)
           0.1042 ( 68)  0.1452 ( 69)
 CRD  3=  -0.2545 (  2)  0.2308 (  5)  0.3911 ( 15)  0.1949 ( 18) -0.1844 ( 19)
          -0.1382 ( 20)  0.1607 ( 22) -0.3449 ( 28)  0.3802 ( 30)  0.1507 ( 40)
           0.1122 ( 41) -0.2629 ( 42)  0.1527 ( 44) -0.1065 ( 57) -0.1126 ( 63)
           0.1240 ( 64)  0.1313 ( 65)  0.1239 ( 67)  0.1322 ( 68)
 CRD  4=  -0.1665 (  2)  0.3902 (  4) -0.2237 (  5)  0.1369 ( 18)  0.1643 ( 19)
          -0.2208 ( 21) -0.2126 ( 23) -0.1079 ( 25) -0.1447 ( 26)  0.2525 ( 27)
          -0.1565 ( 29) -0.1232 ( 37)  0.1491 ( 40) -0.1649 ( 41)  0.2441 ( 43)
           0.1968 ( 46) -0.1510 ( 47) -0.2214 ( 49) -0.1839 ( 50)  0.1723 ( 51)
           0.1505 ( 54)  0.1176 ( 56) -0.1268 ( 60) -0.1513 ( 62)  0.1022 ( 65)
          -0.1154 ( 68)
 CRD  5=  -0.3965 (  2) -0.3965 (  4) -0.3965 (  5) -0.2736 ( 16) -0.2736 ( 17)
          -0.2736 ( 24)  0.1192 ( 32)  0.1193 ( 33)  0.1192 ( 34)  0.1191 ( 36)
           0.1191 ( 38)  0.1192 ( 39) -0.1211 ( 54)  0.1211 ( 55) -0.1211 ( 59)
           0.1211 ( 62) -0.1211 ( 64)  0.1211 ( 67)
 CRD  6=  -0.2467 (  2) -0.3433 (  3) -0.2465 (  4) -0.2459 (  5)  0.2310 ( 16)
           0.2314 ( 17) -0.2133 ( 18) -0.2126 ( 19) -0.2127 ( 20) -0.2132 ( 21)
          -0.2121 ( 22) -0.2138 ( 23)  0.2310 ( 24)  0.1638 ( 31)  0.1635 ( 35)
           0.1637 ( 37)  0.1289 ( 54) -0.1289 ( 55)  0.1288 ( 59) -0.1288 ( 62)
           0.1289 ( 64) -0.1287 ( 67)
 CRD  7=   0.3711 (  2) -0.3395 (  5) -0.1099 ( 13)  0.1087 ( 14)  0.1518 ( 15)
          -0.1924 ( 16)  0.2092 ( 17)  0.3735 ( 18) -0.3872 ( 19) -0.2768 ( 21)
           0.1529 ( 22)  0.2333 ( 23) -0.1915 ( 32)  0.1983 ( 36) -0.1256 ( 38)
           0.1477 ( 39)
 CRD  8=  -0.1400 (  2)  0.3206 (  4) -0.1810 (  5) -0.1959 ( 16) -0.1488 ( 17)
          -0.3544 ( 20)  0.3421 ( 21) -0.3210 ( 22)  0.3685 ( 23)  0.3464 ( 24)
           0.1897 ( 33)  0.1980 ( 34) -0.1548 ( 38) -0.1334 ( 39)
 CRD  9=  -0.1242 (  2)  0.1130 (  5) -0.3132 ( 15) -0.4057 ( 16)  0.4465 ( 17)
          -0.2830 ( 20)  0.2195 ( 21)  0.2642 ( 22) -0.2494 ( 23)  0.2136 ( 31)
          -0.1943 ( 35) -0.1061 ( 53)  0.1062 ( 56) -0.1062 ( 59)  0.1069 ( 67)
 CRD 10=  -0.3704 ( 18)  0.3708 ( 19) -0.3714 ( 20) -0.3698 ( 21)  0.3711 ( 22)
           0.3703 ( 23) -0.1315 ( 32)  0.1312 ( 33) -0.1307 ( 34)  0.1314 ( 36)
           0.1312 ( 38) -0.1311 ( 39)
 CRD 11=   0.1011 ( 11)  0.1412 ( 12) -0.2927 ( 16) -0.2179 ( 17) -0.2801 ( 18)
          -0.2438 ( 19)  0.3025 ( 20)  0.3231 ( 22)  0.5099 ( 24)  0.1169 ( 32)
          -0.1327 ( 35)  0.1247 ( 36)  0.2311 ( 37) -0.1077 ( 39)
 CRD 12=   0.7678 (  3)  0.1064 (  6)  0.1053 ( 10)  0.1057 ( 12)  0.2241 ( 16)
           0.2268 ( 17) -0.1102 ( 18) -0.1076 ( 19) -0.1087 ( 20) -0.1083 ( 21)
          -0.1088 ( 22) -0.1103 ( 23)  0.2253 ( 24)  0.1159 ( 31)  0.1151 ( 35)
           0.1154 ( 37)
 CRD 13=  -0.1697 (  2)  0.1538 (  5) -0.1305 (  6)  0.1191 ( 10) -0.3958 ( 15)
           0.2494 ( 16) -0.2733 ( 17)  0.2628 ( 18) -0.2707 ( 19) -0.1878 ( 21)
           0.1188 ( 22)  0.1519 ( 23) -0.2041 ( 25)  0.1855 ( 26)  0.1311 ( 28)
          -0.1449 ( 30)  0.1673 ( 33) -0.1711 ( 34) -0.1141 ( 38) -0.1116 ( 52)
          -0.1350 ( 53)  0.1047 ( 54) -0.1339 ( 55)  0.1156 ( 56) -0.1049 ( 58)
          -0.1283 ( 59)  0.1012 ( 60) -0.1272 ( 61)
 CRD 14=  -0.2089 ( 43) -0.2088 ( 44) -0.1810 ( 45) -0.1812 ( 46) -0.1809 ( 47)
          -0.1810 ( 48) -0.2087 ( 49) -0.1808 ( 50) -0.1812 ( 51) -0.2088 ( 52)
          -0.1811 ( 53) -0.1810 ( 54) -0.1811 ( 55) -0.1809 ( 56) -0.2088 ( 57)
          -0.2088 ( 58) -0.1810 ( 59) -0.1811 ( 60) -0.1811 ( 61) -0.1811 ( 62)
          -0.2088 ( 63) -0.1811 ( 64) -0.1809 ( 65) -0.2087 ( 66) -0.1809 ( 67)
          -0.1811 ( 68) -0.2088 ( 69)
 CRD 15=   0.1091 (  7)  0.1355 (  9) -0.1985 ( 13) -0.1940 ( 14) -0.1004 ( 38)
          -0.1060 ( 39) -0.2655 ( 43) -0.2450 ( 46)  0.2427 ( 47)  0.2411 ( 49)
           0.2184 ( 50) -0.2631 ( 51)  0.1763 ( 54)  0.1520 ( 56)  0.1748 ( 57)
          -0.1748 ( 60) -0.1928 ( 62) -0.1953 ( 63) -0.1871 ( 64)  0.1929 ( 65)
           0.1913 ( 66)  0.1686 ( 67) -0.2052 ( 68) -0.2076 ( 69)
 CRD 16=   0.3958 (  6)  0.3475 (  7)  0.3095 (  8) -0.3161 (  9) -0.3436 ( 10)
          -0.2566 ( 11)  0.1066 ( 16) -0.1225 ( 17) -0.1763 ( 20)  0.1152 ( 21)
           0.1639 ( 22) -0.1443 ( 23)  0.1837 ( 31)  0.1218 ( 32)  0.1401 ( 33)
          -0.1278 ( 34) -0.1599 ( 35) -0.1001 ( 36)
 CRD 17=   0.1707 (  6)  0.1813 (  8)  0.1563 (  9)  0.2607 ( 10)  0.2462 ( 11)
          -0.4310 ( 12) -0.3245 ( 13) -0.3371 ( 14)  0.1619 ( 18)  0.1713 ( 19)
          -0.1322 ( 21) -0.1016 ( 23)  0.1234 ( 24)  0.1178 ( 35) -0.1945 ( 37)
          -0.1295 ( 38) -0.1348 ( 39) -0.1003 ( 54)  0.1052 ( 60)  0.1098 ( 62)
           0.1036 ( 63)  0.1020 ( 68)
 CRD 18=  -0.1007 (  2) -0.1008 (  4) -0.1007 (  5) -0.2692 (  6) -0.3024 (  7)
          -0.3023 (  8) -0.3026 (  9) -0.2691 ( 10) -0.3024 ( 11) -0.2695 ( 12)
          -0.3028 ( 13) -0.3027 ( 14)  0.1121 ( 16)  0.1121 ( 17)  0.1014 ( 18)
           0.1015 ( 19)  0.1013 ( 20)  0.1013 ( 21)  0.1014 ( 22)  0.1012 ( 23)
           0.1122 ( 24) -0.1067 ( 31) -0.1049 ( 32) -0.1050 ( 33) -0.1049 ( 34)
          -0.1069 ( 35) -0.1049 ( 36) -0.1070 ( 37) -0.1049 ( 38) -0.1050 ( 39)
 CRD 19=  -0.1497 (  2)  0.1357 (  5) -0.1676 (  7) -0.2754 (  8)  0.1280 (  9)
           0.2735 ( 11) -0.1064 ( 13)  0.1480 ( 14) -0.1955 ( 15) -0.1089 ( 43)
           0.2549 ( 44)  0.2399 ( 45) -0.1024 ( 46) -0.1377 ( 47)  0.2401 ( 48)
          -0.1461 ( 49) -0.1373 ( 50) -0.1028 ( 51)  0.2124 ( 52)  0.1974 ( 53)
           0.1976 ( 55) -0.1062 ( 57)  0.2158 ( 58)  0.2008 ( 59)  0.2010 ( 61)
          -0.1033 ( 64) -0.1310 ( 65) -0.1395 ( 66) -0.1306 ( 67) -0.1037 ( 68)
          -0.1098 ( 69)
 CRD 20=   0.1947 (  6) -0.2686 (  8)  0.2752 ( 10) -0.2894 ( 11) -0.4801 ( 12)
           0.2111 ( 13)  0.2503 ( 14)  0.1488 ( 32) -0.1397 ( 35)  0.1602 ( 36)
           0.2437 ( 37) -0.1152 ( 38) -0.1366 ( 39) -0.1335 ( 45)  0.1300 ( 48)
          -0.1397 ( 53)  0.1238 ( 55) -0.1266 ( 59)  0.1369 ( 61)
 CRD 21=  -0.4064 (  6)  0.2854 (  7) -0.3075 (  9)  0.3671 ( 10) -0.2700 ( 13)
           0.2291 ( 14)  0.2099 ( 31) -0.1593 ( 33)  0.1701 ( 34) -0.1894 ( 35)
           0.1417 ( 38) -0.1180 ( 39)  0.1207 ( 44) -0.1020 ( 46)  0.1117 ( 47)
           0.1195 ( 51)  0.1239 ( 52)  0.1063 ( 54)  0.1232 ( 58) -0.1075 ( 60)
           0.1139 ( 62)  0.1137 ( 65)  0.1227 ( 68)
 CRD 22=  -0.3845 (  6)  0.1856 (  7)  0.1661 (  8)  0.1605 (  9) -0.3812 ( 10)
           0.1876 ( 11) -0.3766 ( 12)  0.1813 ( 13)  0.1624 ( 14)  0.1955 ( 31)
          -0.1036 ( 33)  0.1937 ( 35) -0.1048 ( 36)  0.1914 ( 37) -0.1014 ( 38)
          -0.1015 ( 45) -0.1036 ( 46) -0.1022 ( 47)  0.1049 ( 48)  0.1067 ( 50)
           0.1072 ( 51) -0.1174 ( 54)  0.1202 ( 55) -0.1168 ( 59)  0.1224 ( 62)
          -0.1188 ( 64)  0.1220 ( 67)
 CRD 23=  -0.3134 (  7)  0.3284 (  8)  0.3223 (  9) -0.3127 ( 11) -0.3143 ( 13)
           0.3254 ( 14) -0.1765 ( 32)  0.1680 ( 33) -0.1731 ( 34)  0.1677 ( 36)
           0.1685 ( 38) -0.1746 ( 39)  0.1256 ( 43)  0.1255 ( 44)  0.1242 ( 49)
           0.1261 ( 52)  0.1237 ( 57)  0.1249 ( 58)  0.1260 ( 63)  0.1247 ( 66)
           0.1250 ( 69)
 CRD 24=  -0.4049 (  7)  0.3154 (  8) -0.3885 (  9)  0.1224 ( 10)  0.2627 ( 11)
          -0.2071 ( 12)  0.1448 ( 13) -0.1747 ( 32)  0.2281 ( 33)  0.2198 ( 34)
          -0.1442 ( 36)  0.1199 ( 37)  0.1161 ( 43)  0.1286 ( 47) -0.1053 ( 49)
          -0.1270 ( 51)  0.1420 ( 54) -0.1407 ( 62)  0.1023 ( 63)  0.1360 ( 65)
          -0.1365 ( 68)  0.1065 ( 69)
 CRD 25=   0.2473 (  6) -0.2348 (  8) -0.1207 (  9) -0.2213 ( 10)  0.2820 ( 11)
          -0.3382 ( 13)  0.3579 ( 14) -0.1498 ( 31)  0.1579 ( 32)  0.1341 ( 35)
          -0.1856 ( 36)  0.2078 ( 38) -0.2221 ( 39) -0.1374 ( 45)  0.1310 ( 46)
          -0.1215 ( 48)  0.1437 ( 50) -0.1531 ( 53) -0.1372 ( 55)  0.1455 ( 56)
          -0.1548 ( 59)  0.1292 ( 60) -0.1389 ( 61)  0.1466 ( 64)  0.1612 ( 67)
 CRD 26=  -0.1109 (  2)  0.2597 (  4) -0.1489 (  5) -0.2387 (  7) -0.2619 (  9)
           0.1287 ( 12)  0.2569 ( 13)  0.2318 ( 14)  0.1612 ( 18)  0.1839 ( 19)
          -0.2099 ( 21) -0.1961 ( 23)  0.1031 ( 24) -0.1215 ( 27) -0.1082 ( 28)
           0.1887 ( 29)  0.1574 ( 32)  0.1269 ( 35)  0.1639 ( 36) -0.2218 ( 37)
          -0.1037 ( 38) -0.1238 ( 39) -0.1345 ( 40)  0.1490 ( 41) -0.1462 ( 43)
           0.1328 ( 49) -0.1419 ( 54) -0.1202 ( 56)  0.1261 ( 60)  0.1422 ( 62)
 CRD 27=   0.4667 (  3) -0.2684 (  6) -0.2679 ( 10) -0.2681 ( 12) -0.1524 ( 16)
          -0.1528 ( 17) -0.1526 ( 24)  0.1599 ( 32)  0.1605 ( 33)  0.1599 ( 34)
           0.1596 ( 36)  0.1596 ( 38)  0.1603 ( 39) -0.1010 ( 52)  0.1758 ( 54)
          -0.1756 ( 55)  0.1008 ( 57)  0.1008 ( 58)  0.1759 ( 59) -0.1758 ( 62)
          -0.1007 ( 63)  0.1756 ( 64) -0.1011 ( 66) -0.1758 ( 67)  0.1010 ( 69)
 CRD 28=   0.1304 (  6)  0.1623 (  7)  0.2599 (  8) -0.1262 (  9) -0.1188 ( 10)
          -0.2570 ( 11) -0.1339 ( 14) -0.2132 ( 15) -0.1448 ( 16)  0.1592 ( 17)
           0.2159 ( 20) -0.1368 ( 21) -0.2074 ( 22)  0.1632 ( 23) -0.1669 ( 25)
           0.1512 ( 26) -0.2277 ( 31) -0.1183 ( 32) -0.1942 ( 33)  0.1930 ( 34)
           0.2066 ( 35)  0.1038 ( 38) -0.1236 ( 42) -0.1100 ( 43)  0.2578 ( 44)
           0.1839 ( 45) -0.1153 ( 47)  0.1855 ( 48) -0.1477 ( 49)
 CRD 29=  -0.3201 (  2)  0.1840 (  3) -0.3202 (  4) -0.3197 (  5)  0.1796 (  7)
           0.1793 (  8)  0.1796 (  9)  0.1792 ( 11)  0.1794 ( 13)  0.1796 ( 14)
           0.1222 ( 16)  0.1223 ( 17)  0.1570 ( 18)  0.1569 ( 19)  0.1569 ( 20)
           0.1568 ( 21)  0.1568 ( 22)  0.1569 ( 23)  0.1223 ( 24) -0.2242 ( 31)
          -0.1057 ( 32) -0.1055 ( 33) -0.1052 ( 34) -0.2241 ( 35) -0.1055 ( 36)
          -0.2242 ( 37) -0.1056 ( 38) -0.1055 ( 39)
 CRD 30=  -0.2343 (  2)  0.5487 (  4) -0.3148 (  5)  0.1579 (  8)  0.1113 ( 10)
           0.1716 ( 11) -0.1944 ( 12) -0.1434 ( 13) -0.1605 ( 14)  0.1083 ( 16)
          -0.1862 ( 18) -0.1826 ( 19)  0.1234 ( 22) -0.1888 ( 24) -0.1552 ( 33)
          -0.1774 ( 34)  0.1686 ( 37)  0.2037 ( 38)  0.1906 ( 39)
 CRD 31=  -0.1876 (  3) -0.1767 (  6) -0.1765 ( 10) -0.1766 ( 12)  0.1279 ( 16)
           0.1278 ( 17)  0.1278 ( 24)  0.1001 ( 26)  0.1000 ( 27) -0.1360 ( 31)
          -0.1359 ( 35) -0.1359 ( 37)  0.1286 ( 45)  0.1280 ( 46)  0.1283 ( 47)
          -0.1279 ( 48) -0.1282 ( 50) -0.1285 ( 51)  0.1325 ( 52)  0.2612 ( 53)
          -0.2610 ( 56) -0.1332 ( 57) -0.1332 ( 58)  0.2609 ( 60) -0.2609 ( 61)
           0.1332 ( 63)  0.2613 ( 65)  0.1326 ( 66) -0.2612 ( 68) -0.1324 ( 69)
 CRD 32=  -0.4617 (  2)  0.4189 (  5)  0.1577 (  6)  0.1536 (  7) -0.1744 (  9)
          -0.1430 ( 10) -0.1949 ( 13)  0.1809 ( 14)  0.1244 ( 15) -0.1041 ( 16)
           0.1149 ( 17)  0.1137 ( 20) -0.1088 ( 21) -0.1022 ( 22)  0.1187 ( 23)
           0.1015 ( 25) -0.1999 ( 32)  0.2081 ( 36) -0.1304 ( 38)  0.1562 ( 39)
           0.1029 ( 43) -0.2412 ( 44)  0.1382 ( 49) -0.1041 ( 52) -0.1022 ( 58)
 CRD 33=   0.2306 (  7) -0.2309 (  8) -0.2311 (  9)  0.2314 ( 11)  0.2313 ( 13)
          -0.2308 ( 14) -0.1771 ( 32)  0.1769 ( 33) -0.1772 ( 34)  0.1775 ( 36)
           0.1774 ( 38) -0.1771 ( 39)  0.1514 ( 43)  0.1515 ( 44) -0.1131 ( 45)
          -0.1134 ( 46) -0.1132 ( 47) -0.1136 ( 48)  0.1517 ( 49) -0.1137 ( 50)
          -0.1130 ( 51)  0.1516 ( 52) -0.1130 ( 53) -0.1131 ( 54) -0.1135 ( 55)
          -0.1136 ( 56)  0.1517 ( 57)  0.1515 ( 58) -0.1131 ( 59) -0.1135 ( 60)
          -0.1136 ( 61) -0.1131 ( 62)  0.1513 ( 63) -0.1135 ( 64) -0.1131 ( 65)
           0.1517 ( 66) -0.1136 ( 67) -0.1131 ( 68)  0.1513 ( 69)
 CRD 34=   0.1299 (  6)  0.1137 (  7) -0.2285 (  8)  0.1584 ( 10) -0.2282 ( 11)
          -0.2875 ( 12)  0.1141 ( 13)  0.1397 ( 14)  0.1067 ( 20)  0.1062 ( 22)
           0.1372 ( 29) -0.1850 ( 32)  0.1138 ( 35) -0.1873 ( 36) -0.2066 ( 37)
           0.1113 ( 38)  0.1307 ( 39)  0.1047 ( 43)  0.1804 ( 45) -0.1751 ( 46)
          -0.1666 ( 48)  0.1855 ( 50)  0.1433 ( 53) -0.2037 ( 55)  0.1665 ( 56)
          -0.1154 ( 57)  0.2172 ( 59) -0.1601 ( 60) -0.1298 ( 61)  0.1197 ( 63)
          -0.1929 ( 64)  0.2074 ( 67)
 CRD 35=  -0.2878 (  6)  0.1939 (  7) -0.1980 (  9)  0.2678 ( 10) -0.1529 ( 13)
           0.1348 ( 14)  0.1003 ( 17) -0.1000 ( 28)  0.1069 ( 30) -0.2082 ( 31)
           0.1707 ( 33) -0.1723 ( 34)  0.1937 ( 35) -0.1184 ( 38)  0.1013 ( 39)
           0.1309 ( 46) -0.2149 ( 47)  0.1082 ( 48)  0.1093 ( 50) -0.2174 ( 51)
          -0.2478 ( 54)  0.1206 ( 55)  0.1171 ( 61) -0.2508 ( 62)  0.1551 ( 64)
          -0.1941 ( 65)  0.1301 ( 67) -0.1932 ( 68)
 CRD 36=   0.1485 (  4)  0.2432 (  7) -0.1480 (  8)  0.2411 (  9) -0.1112 ( 10)
          -0.1137 ( 11)  0.1950 ( 12) -0.1293 ( 13)  0.1007 ( 20) -0.1163 ( 21)
          -0.1228 ( 23) -0.1086 ( 24)  0.1255 ( 29) -0.1190 ( 32)  0.1761 ( 33)
           0.1721 ( 34)  0.1744 ( 37)  0.1199 ( 43) -0.1207 ( 45)  0.1826 ( 47)
           0.1418 ( 48) -0.1085 ( 49) -0.1746 ( 51) -0.1664 ( 53) -0.1052 ( 56)
          -0.2467 ( 57)  0.1637 ( 61)  0.2652 ( 63) -0.2082 ( 66)  0.2363 ( 69)
 CRD 37=  -0.2303 (  2)  0.2092 (  5) -0.1116 (  6)  0.1656 (  8)  0.1013 ( 10)
          -0.1871 ( 11)  0.1929 ( 13) -0.2073 ( 14)  0.1436 ( 18) -0.1423 ( 19)
           0.1189 ( 25) -0.1077 ( 26)  0.1370 ( 28) -0.1511 ( 30) -0.1218 ( 31)
           0.1107 ( 35) -0.1125 ( 36)  0.1483 ( 38) -0.1532 ( 39)  0.1514 ( 42)
          -0.2085 ( 45)  0.1706 ( 46) -0.1935 ( 48)  0.1920 ( 50)  0.2690 ( 52)
           0.1062 ( 56) -0.1191 ( 57)  0.2763 ( 58)  0.1198 ( 60) -0.1213 ( 65)
          -0.1926 ( 66) -0.1312 ( 68) -0.1573 ( 69)
 CRD 38=  -0.6791 ( 15)  0.3010 ( 25) -0.2731 ( 26) -0.2397 ( 28)  0.2644 ( 30)
          -0.1309 ( 44) -0.1527 ( 45)  0.1136 ( 47) -0.1578 ( 48) -0.1207 ( 56)
          -0.1102 ( 57) -0.1218 ( 60) -0.1052 ( 63)
 CRD 39=   0.5775 ( 40)  0.5772 ( 41)  0.5774 ( 42)

 THE DETERMINANT OF THE G MATRIX IS 10**(   -13)


                     --------------------
                     INTERNAL COORDINATES
                     --------------------

                 - - ATOMS - -         COORDINATE      COORDINATE
 NO.   TYPE    I  J  K  L  M  N        (BOHR,RAD)       (ANG,DEG)
 ----------------------------------------------------------------
   1 STRETCH   1  3                     4.7243150       2.5000000
   2 STRETCH   2  4                     3.3538460       1.7747790
   3 STRETCH   2  3                     3.3196218       1.7566683
   4 STRETCH   2  6                     3.3539733       1.7748464
   5 STRETCH   2  5                     3.3538992       1.7748072
   6 STRETCH   4  8                     2.0679643       1.0943196
   7 STRETCH   4  7                     2.0574453       1.0887532
   8 STRETCH   4  9                     2.0572881       1.0886701
   9 STRETCH   5 12                     2.0573449       1.0887001
  10 STRETCH   5 11                     2.0679960       1.0943364
  11 STRETCH   5 10                     2.0573635       1.0887099
  12 STRETCH   6 15                     2.0678311       1.0942492
  13 STRETCH   6 14                     2.0574193       1.0887395
  14 STRETCH   6 13                     2.0574658       1.0887641
  15 BEND      1  3  2                  3.1407285     179.9504864
  16 BEND      2  5 11                  1.8647629     106.8430437
  17 BEND      2  4  8                  1.8654887     106.8846315
  18 BEND      2  6 13                  1.9363405     110.9441357
  19 BEND      2  6 14                  1.9367673     110.9685932
  20 BEND      2  4  9                  1.9363663     110.9456164
  21 BEND      2  5 12                  1.9367468     110.9674169
  22 BEND      2  5 10                  1.9366586     110.9623649
  23 BEND      2  4  7                  1.9362777     110.9405404
  24 BEND      2  6 15                  1.8648449     106.8477426
  25 BEND      3  2  4                  1.8625915     106.7186329
  26 BEND      3  2  5                  1.8629232     106.7376352
  27 BEND      3  2  6                  1.8629692     106.7402727
  28 BEND      4  2  6                  1.9560829     112.0752918
  29 BEND      4  2  5                  1.9558860     112.0640120
  30 BEND      5  2  6                  1.9557846     112.0582053
  31 BEND      7  4  9                  1.9373963     111.0046285
  32 BEND      7  4  8                  1.8926647     108.4417006
  33 BEND      8  4  9                  1.8931684     108.4705596
  34 BEND     10  5 11                  1.8926604     108.4414529
  35 BEND     10  5 12                  1.9375674     111.0144323
  36 BEND     11  5 12                  1.8929064     108.4555452
  37 BEND     13  6 14                  1.9376724     111.0204481
  38 BEND     13  6 15                  1.8928290     108.4511126
  39 BEND     14  6 15                  1.8928573     108.4527372
  40 TORSION   1  3  2  5               0.6078242      34.8257610
  41 TORSION   1  3  2  4               2.7021086     154.8194186
  42 TORSION   1  3  2  6              -1.4865386     -85.1723900
  43 TORSION   3  2  4  8              -3.1397635    -179.8951976
  44 TORSION   3  2  6 15               3.1406228     179.9444323
  45 TORSION   3  2  6 14              -1.0822197     -62.0066193
  46 TORSION   3  2  4  7              -1.0795371     -61.8529181
  47 TORSION   3  2  5 10              -1.0836507     -62.0886112
  48 TORSION   3  2  6 13               1.0805476      61.9108182
  49 TORSION   3  2  5 11               3.1395369     179.8822159
  50 TORSION   3  2  5 12               1.0791952      61.8333328
  51 TORSION   3  2  4  9               1.0825410      62.0250294
  52 TORSION   4  2  6 15              -1.1093065     -63.5585802
  53 TORSION   4  2  6 14               0.9510363      54.4903681
  54 TORSION   4  2  5 10              -3.1167730    -178.5779384
  55 TORSION   4  2  6 13               3.1138036     178.4078057
  56 TORSION   4  2  5 12              -0.9539271     -54.6559945
  57 TORSION   4  2  5 11               1.1064146      63.3928887
  58 TORSION   5  2  6 15               1.1071274      63.4337280
  59 TORSION   5  2  6 14              -3.1157151    -178.5173236
  60 TORSION   5  2  4  7               0.9537852      54.6478664
  61 TORSION   5  2  6 13              -0.9529478     -54.5998861
  62 TORSION   5  2  4  9               3.1158633     178.5258139
  63 TORSION   5  2  4  8              -1.1064412     -63.3944130
  64 TORSION   6  2  4  7              -3.1130207    -178.3629494
  65 TORSION   6  2  5 10               0.9498725      54.4236833
  66 TORSION   6  2  5 11              -1.1101252     -63.6054896
  67 TORSION   6  2  5 12               3.1127184     178.3456273
  68 TORSION   6  2  4  9              -0.9509427     -54.4850018
  69 TORSION   6  2  4  8               1.1099381      63.5947712

     ------------------------------------------
     THE POINT GROUP IS C1 , NAXIS= 0, ORDER= 1
     ------------------------------------------

 -- VARIATIONAL SPACE WILL BE RESTRICTED TO PURE SPHERICAL HARMONICS ONLY --
 AFTER EXCLUDING CONTAMINANT COMBINATIONS FROM THE CARTESIAN GAUSSIAN BASIS
 SET, THE NUMBER OF SPHERICAL HARMONICS KEPT IN THE VARIATION SPACE IS  316

     DIMENSIONS OF THE SYMMETRY SUBSPACES ARE
 A   =  316

 ..... DONE SETTING UP THE RUN .....
 CPU     0: STEP CPU TIME=     0.09 TOTAL CPU TIME=        0.1 (    0.0 MIN)
 TOTAL WALL CLOCK TIME=        0.2 SECONDS, CPU UTILIZATION IS  56.25%


          -----------------------------
          STATIONARY POINT LOCATION RUN
          -----------------------------


           ** GEOMETRY CONSTRAINTS ARE BEING APPLIED. **

          TRANSFORMING DISPLACEMENT FROM INTERNALS TO CARTESIANS
          THE ROOT MEAN SQUARE ERROR IN ITERATION   1 IS   0.00000000
 WARNING! THE RADIUS IN CARTESIANS IS    0.00000
 OBTAINING INITIAL HESSIAN, HESS=GUESS   
 DIAGONAL GUESS HESSIAN IN INTERNAL COORDS IS
     1  0.2690     2  0.4333     3  0.3624     4  0.4333     5  0.4333
     6  0.3435     7  0.3472     8  0.3473     9  0.3472    10  0.3435
    11  0.3472    12  0.3435    13  0.3472    14  0.3472    15  0.2762
    16  0.2409    17  0.2409    18  0.2412    19  0.2412    20  0.2412
    21  0.2412    22  0.2412    23  0.2412    24  0.2409    25  0.2785
    26  0.2785    27  0.2785    28  0.2914    29  0.2914    30  0.2914
    31  0.2035    32  0.2032    33  0.2033    34  0.2032    35  0.2035
    36  0.2032    37  0.2035    38  0.2032    39  0.2033    40  0.2500
    41  0.2500    42  0.2500    43  0.2500    44  0.2500    45  0.2500
    46  0.2500    47  0.2500    48  0.2500    49  0.2500    50  0.2500
    51  0.2500    52  0.2500    53  0.2500    54  0.2500    55  0.2500
    56  0.2500    57  0.2500    58  0.2500    59  0.2500    60  0.2500
    61  0.2500    62  0.2500    63  0.2500    64  0.2500    65  0.2500
    66  0.2500    67  0.2500    68  0.2500    69  0.2500
 TRANSFORMING HESSIAN TO SYMMETRY COORDINATES

          PARAMETERS CONTROLLING GEOMETRY SEARCH ARE
          METHOD =QA                  UPHESS =BFGS    
          NNEG   =         0          NFRZ   =         0
          NSTEP  =        50          IFOLOW =         1
          HESS   =GUESS               RESTAR =         F
          IHREP  =         0          HSSEND =         F
          NPRT   =         0          NPUN   =         0
          OPTTOL = 1.000E-04          RMIN   = 1.500E-03
          RMAX   = 1.000E-01          RLIM   = 7.000E-02
          DXMAX  = 3.000E-01          PURIFY =         F
          MOVIE  =         F          TRUPD  =         T
          TRMAX  = 5.000E-01          TRMIN  = 5.000E-02
          ITBMAT =         5          STPT   =         F
          STSTEP = 1.000E-02          PROJCT=          T

 BEGINNING GEOMETRY SEARCH POINT NSERCH=   0 ...

 COORDINATES OF ALL ATOMS ARE (ANGS)
   ATOM   CHARGE       X              Y              Z
 ------------------------------------------------------------
 LA         57.0  -0.1739353441   1.1341682690  -4.0490164368
 P          15.0  -0.0263051179   0.2032652096   0.1019890916
 O           8.0  -0.0881176409   0.5875061295  -1.6110263164
 C           6.0  -1.4757970140   0.9157209734   0.8376659670
 C           6.0   1.4662218379   0.9260098429   0.7344002792
 C           6.0  -0.0153751385  -1.5670148383   0.2287518448
 H           1.0  -1.4775456808   1.9985540444   0.7242945690
 H           1.0  -1.4390644177   0.6795181958   1.9055584909
 H           1.0  -2.3801916028   0.4780158394   0.4185154520
 H           1.0   2.3422903265   0.4940427407   0.2535699974
 H           1.0   1.5054076372   0.6894479718   1.8021433031
 H           1.0   1.4529846967   2.0087635177   0.6215412765
 H           1.0   0.8668153612  -1.9862061835  -0.2523154607
 H           1.0  -0.9267566402  -1.9930613263  -0.1874473599
 H           1.0   0.0241350502  -1.8083616628   1.2953219987


                     --------------------
                     INTERNAL COORDINATES
                     --------------------

                 - - ATOMS - -         COORDINATE      COORDINATE
 NO.   TYPE    I  J  K  L  M  N        (BOHR,RAD)       (ANG,DEG)
 ----------------------------------------------------------------
   1 STRETCH   1  3                     4.7243150       2.5000000
   2 STRETCH   2  4                     3.3538460       1.7747790
   3 STRETCH   2  3                     3.3196218       1.7566683
   4 STRETCH   2  6                     3.3539733       1.7748464
   5 STRETCH   2  5                     3.3538992       1.7748072
   6 STRETCH   4  8                     2.0679643       1.0943196
   7 STRETCH   4  7                     2.0574453       1.0887532
   8 STRETCH   4  9                     2.0572881       1.0886701
   9 STRETCH   5 12                     2.0573449       1.0887001
  10 STRETCH   5 11                     2.0679960       1.0943364
  11 STRETCH   5 10                     2.0573635       1.0887099
  12 STRETCH   6 15                     2.0678311       1.0942492
  13 STRETCH   6 14                     2.0574193       1.0887395
  14 STRETCH   6 13                     2.0574658       1.0887641
  15 BEND      1  3  2                  3.1407285     179.9504864
  16 BEND      2  5 11                  1.8647629     106.8430437
  17 BEND      2  4  8                  1.8654887     106.8846315
  18 BEND      2  6 13                  1.9363405     110.9441357
  19 BEND      2  6 14                  1.9367673     110.9685932
  20 BEND      2  4  9                  1.9363663     110.9456164
  21 BEND      2  5 12                  1.9367468     110.9674169
  22 BEND      2  5 10                  1.9366586     110.9623649
  23 BEND      2  4  7                  1.9362777     110.9405404
  24 BEND      2  6 15                  1.8648449     106.8477426
  25 BEND      3  2  4                  1.8625915     106.7186329
  26 BEND      3  2  5                  1.8629232     106.7376352
  27 BEND      3  2  6                  1.8629692     106.7402727
  28 BEND      4  2  6                  1.9560829     112.0752918
  29 BEND      4  2  5                  1.9558860     112.0640120
  30 BEND      5  2  6                  1.9557846     112.0582053
  31 BEND      7  4  9                  1.9373963     111.0046285
  32 BEND      7  4  8                  1.8926647     108.4417006
  33 BEND      8  4  9                  1.8931684     108.4705596
  34 BEND     10  5 11                  1.8926604     108.4414529
  35 BEND     10  5 12                  1.9375674     111.0144323
  36 BEND     11  5 12                  1.8929064     108.4555452
  37 BEND     13  6 14                  1.9376724     111.0204481
  38 BEND     13  6 15                  1.8928290     108.4511126
  39 BEND     14  6 15                  1.8928573     108.4527372
  40 TORSION   1  3  2  5               0.6078242      34.8257609
  41 TORSION   1  3  2  4               2.7021086     154.8194186
  42 TORSION   1  3  2  6              -1.4865386     -85.1723900
  43 TORSION   3  2  4  8              -3.1397635    -179.8951976
  44 TORSION   3  2  6 15               3.1406228     179.9444323
  45 TORSION   3  2  6 14              -1.0822197     -62.0066193
  46 TORSION   3  2  4  7              -1.0795371     -61.8529181
  47 TORSION   3  2  5 10              -1.0836507     -62.0886112
  48 TORSION   3  2  6 13               1.0805476      61.9108182
  49 TORSION   3  2  5 11               3.1395369     179.8822159
  50 TORSION   3  2  5 12               1.0791952      61.8333328
  51 TORSION   3  2  4  9               1.0825410      62.0250294
  52 TORSION   4  2  6 15              -1.1093065     -63.5585802
  53 TORSION   4  2  6 14               0.9510363      54.4903681
  54 TORSION   4  2  5 10              -3.1167730    -178.5779384
  55 TORSION   4  2  6 13               3.1138036     178.4078057
  56 TORSION   4  2  5 12              -0.9539271     -54.6559945
  57 TORSION   4  2  5 11               1.1064146      63.3928887
  58 TORSION   5  2  6 15               1.1071274      63.4337280
  59 TORSION   5  2  6 14              -3.1157151    -178.5173236
  60 TORSION   5  2  4  7               0.9537852      54.6478664
  61 TORSION   5  2  6 13              -0.9529478     -54.5998861
  62 TORSION   5  2  4  9               3.1158633     178.5258139
  63 TORSION   5  2  4  8              -1.1064412     -63.3944130
  64 TORSION   6  2  4  7              -3.1130207    -178.3629494
  65 TORSION   6  2  5 10               0.9498725      54.4236833
  66 TORSION   6  2  5 11              -1.1101252     -63.6054896
  67 TORSION   6  2  5 12               3.1127184     178.3456273
  68 TORSION   6  2  4  9              -0.9509427     -54.4850018
  69 TORSION   6  2  4  8               1.1099381      63.5947712

          ********************
          1 ELECTRON INTEGRALS
          ********************
 TIME TO DO ORDINARY INTEGRALS=      0.02
 TIME TO DO      ECP INTEGRALS=      0.05
 ...... END OF ONE-ELECTRON INTEGRALS ......
 CPU     0: STEP CPU TIME=     0.07 TOTAL CPU TIME=        0.2 (    0.0 MIN)
 TOTAL WALL CLOCK TIME=        0.3 SECONDS, CPU UTILIZATION IS  55.17%

          -------------
          GUESS OPTIONS
          -------------
          GUESS =HUCKEL            NORB  =       0          NORDER=       0
          MIX   =       F          PRTMO =       F          PUNMO =       F
          TOLZ  = 1.0E-08          TOLE  = 1.0E-05
          SYMDEN=       F          PURIFY=       F

 INITIAL GUESS ORBITALS GENERATED BY HUCKEL   ROUTINE.
 HUCKEL GUESS REQUIRES    916545 WORDS.

 STATISTICS FOR GENERATION OF SYMMETRY ORBITAL -Q- MATRIX
 NUMBER OF CARTESIAN ATOMIC ORBITALS=        354
 NUMBER OF SPHERICAL CONTAMINANTS DROPPED=    38
 NUMBER OF LINEARLY DEPENDENT MOS DROPPED=     0
 TOTAL NUMBER OF MOS IN VARIATION SPACE=     316

 SYMMETRIES FOR INITIAL GUESS ORBITALS FOLLOW.   BOTH SET(S).
    29 ORBITALS ARE OCCUPIED (   13 CORE ORBITALS).
    14=A       15=A       16=A       17=A       18=A       19=A       20=A   
    21=A       22=A       23=A       24=A       25=A       26=A       27=A   
    28=A       29=A       30=A       31=A       32=A       33=A       34=A   
    35=A       36=A       37=A       38=A       39=A   
 ...... END OF INITIAL ORBITAL SELECTION ......
 CPU     0: STEP CPU TIME=     0.21 TOTAL CPU TIME=        0.4 (    0.0 MIN)
 TOTAL WALL CLOCK TIME=        0.8 SECONDS, CPU UTILIZATION IS  47.44%

                    ----------------------
                    AO INTEGRAL TECHNOLOGY
                    ----------------------
     S,P,L SHELL ROTATED AXIS INTEGRALS, REPROGRAMMED BY
        KAZUYA ISHIMURA (IMS) AND JOSE SIERRA (SYNSTAR).
     S,P,D,L SHELL ROTATED AXIS INTEGRALS PROGRAMMED BY
        KAZUYA ISHIMURA (INSTITUTE FOR MOLECULAR SCIENCE).
     S,P,D,F,G SHELL TO TOTAL QUARTET ANGULAR MOMENTUM SUM 5,
        ERIC PROGRAM BY GRAHAM FLETCHER (ELORET AND NASA ADVANCED
        SUPERCOMPUTING DIVISION, AMES RESEARCH CENTER).
     S,P,D,F,G,L SHELL GENERAL RYS QUADRATURE PROGRAMMED BY
        MICHEL DUPUIS (PACIFIC NORTHWEST NATIONAL LABORATORY).

          --------------------
          2 ELECTRON INTEGRALS
          --------------------

 DIRECT SCF METHOD SKIPS INTEGRAL STORAGE ON DISK.
 DIRECT TRANSFORMATION SKIPS AO INTEGRAL STORAGE ON DISK.
  ...... END OF TWO-ELECTRON INTEGRALS .....
 CPU     0: STEP CPU TIME=     0.00 TOTAL CPU TIME=        0.4 (    0.0 MIN)
 TOTAL WALL CLOCK TIME=        0.8 SECONDS, CPU UTILIZATION IS  46.84%

          --------------------------
                 RHF SCF CALCULATION
          --------------------------

     NUCLEAR ENERGY =       324.1688996004
     MAXIT =  200     NPUNCH=    2
     EXTRAP=T  DAMP=F  SHIFT=F  RSTRCT=F  DIIS=F  DEM=F  SOSCF=T
     DENSITY MATRIX CONV=  2.00E-06
     SOSCF WILL OPTIMIZE    8323 ORBITAL ROTATIONS, SOGTOL=   0.250
     MEMORY REQUIRED FOR RHF ITERS=    982670 WORDS.

 DIRECT SCF CALCULATION, SCHWRZ=T   FDIFF=F,  DIRTHR=  0.00E+00 NITDIR=10
 SCHWARZ INEQUALITY OVERHEAD:     62118 INTEGRALS, T=        0.01

                                                                                   NONZERO     BLOCKS
 ITER EX DEM     TOTAL ENERGY        E CHANGE  DENSITY CHANGE     ORB. GRAD      INTEGRALS    SKIPPED
   1  0  0     -563.4916888967  -563.4916888967   0.367543451   0.000000000     1427668019    4388533
          ---------------START SECOND ORDER SCF---------------
   2  1  0     -564.5737898769    -1.0821009802   0.112428100   0.047681061     1413628725    4715996
   3  2  0     -564.6492624771    -0.0754726002   0.047071099   0.027075579     1412537382    4717185
   4  3  0     -564.6748288552    -0.0255663780   0.013641398   0.005242587     1413261222    4708302
   5  4  0     -564.6758464124    -0.0010175573   0.005073265   0.003918694     1413765118    4701847
   6  5  0     -564.6762908239    -0.0004444115   0.001930281   0.000765088     1413759252    4701404
   7  6  0     -564.6763121632    -0.0000213392   0.000938735   0.000238509     1413778556    4701043
   8  7  0     -564.6763150981    -0.0000029350   0.000127529   0.000086226     1413796625    4700881
   9  8  0     -564.6763153207    -0.0000002226   0.000065879   0.000040600     1413801170    4700858
  10  9  0     -564.6763153565    -0.0000000358   0.000026428   0.000011413     1413799849    4700879
  11 10  0     -564.6763153616    -0.0000000051   0.000011448   0.000002887     1413800689    4700883
  12 11  0     -564.6763153626    -0.0000000009   0.000004599   0.000001155     1413801438    4700881
  13 12  0     -564.6763153627    -0.0000000002   0.000002629   0.000000604     1413800549    4700877
  14 13  0     -564.6763153627    -0.0000000000   0.000001117   0.000000176     1413800840    4700877

          -----------------
          DENSITY CONVERGED
          -----------------
     TIME TO FORM FOCK OPERATORS=      89.5 SECONDS (       6.4 SEC/ITER)
     FOCK TIME ON FIRST ITERATION=       6.5, LAST ITERATION=       6.4
     TIME TO SOLVE SCF EQUATIONS=       0.4 SECONDS (       0.0 SEC/ITER)

 FINAL RHF ENERGY IS     -564.6763153627 AFTER  14 ITERATIONS

          ------------
          EIGENVECTORS
          ------------

                      1          2          3          4          5
                  -80.4374   -20.9806   -11.6032   -11.6032   -11.6031
                     A          A          A          A          A   
    1  LA 1  S    0.000003  -0.000004   0.000000   0.000004   0.000006
    2  LA 1  X    0.000000   0.000000  -0.000004  -0.000005   0.000005
    3  LA 1  Y   -0.000001  -0.000002  -0.000007   0.000003  -0.000004
    4  LA 1  Z    0.000006   0.000007  -0.000001   0.000005   0.000005
    5  LA 1 XX    0.000002  -0.000008   0.000004  -0.000004  -0.000002
    6  LA 1 YY    0.000002  -0.000007  -0.000004   0.000000  -0.000004
    7  LA 1 ZZ   -0.000004   0.000015   0.000001   0.000004   0.000005
    8  LA 1 XY    0.000000  -0.000000   0.000002   0.000003  -0.000002
    9  LA 1 XZ   -0.000000   0.000001   0.000002   0.000003  -0.000002
   10  LA 1 YZ    0.000002  -0.000006   0.000001  -0.000002  -0.000002
   11  LA 1 XX    0.000002   0.000044  -0.000007   0.000024   0.000022
   12  LA 1 YY    0.000002   0.000038   0.000009   0.000013   0.000025
   13  LA 1 ZZ   -0.000004  -0.000082  -0.000002  -0.000037  -0.000047
   14  LA 1 XY    0.000000   0.000001  -0.000005  -0.000006   0.000006
   15  LA 1 XZ   -0.000000  -0.000005  -0.000003  -0.000007   0.000000
   16  LA 1 YZ    0.000001   0.000033  -0.000000   0.000016   0.000018
   17  LA 1  S   -0.000009  -0.000057  -0.000005  -0.000105  -0.000131
   18  LA 1  X    0.000000  -0.000002  -0.000010  -0.000014   0.000008
   19  LA 1  Y   -0.000000   0.000011  -0.000015   0.000017   0.000006
   20  LA 1  Z    0.000000  -0.000049  -0.000005  -0.000040  -0.000055
   21  LA 1  S    0.000005   0.000041   0.000008   0.000157   0.000196
   22  LA 1  X    0.000000   0.000001   0.000025   0.000035  -0.000019
   23  LA 1  Y   -0.000000  -0.000008   0.000037  -0.000050  -0.000025
   24  LA 1  Z    0.000001   0.000036   0.000014   0.000132   0.000175
   25  LA 1  S   -0.000007   0.000014  -0.000000  -0.000006  -0.000007
   26  LA 1  X   -0.000001  -0.000001   0.000007   0.000008  -0.000008
   27  LA 1  Y    0.000004   0.000005   0.000011  -0.000002   0.000008
   28  LA 1  Z   -0.000017  -0.000022   0.000002  -0.000017  -0.000019
   29  LA 1 XX   -0.000001  -0.000014   0.000008  -0.000043  -0.000048
   30  LA 1 YY   -0.000001  -0.000012  -0.000021  -0.000025  -0.000050
   31  LA 1 ZZ    0.000003   0.000027   0.000013   0.000068   0.000099
   32  LA 1 XY   -0.000000  -0.000000   0.000003   0.000001  -0.000003
   33  LA 1 XZ    0.000000   0.000002   0.000020   0.000030  -0.000015
   34  LA 1 YZ   -0.000001  -0.000011   0.000024  -0.000043  -0.000028
   35  P  2  S    1.000136   0.000072   0.000004   0.000087   0.000108
   36  P  2  S    0.000165   0.000449   0.000030   0.000616   0.000768
   37  P  2  S    0.000181   0.000591   0.000047   0.000957   0.001192
   38  P  2  S   -0.000938  -0.000178  -0.000015  -0.000308  -0.000383
   39  P  2  S   -0.000371  -0.002394   0.000006   0.000110   0.000137
   40  P  2  X   -0.000003  -0.000003   0.000304   0.000377  -0.000304
   41  P  2  Y    0.000016   0.000021   0.000473  -0.000270   0.000132
   42  P  2  Z   -0.000070  -0.000094   0.000102   0.000077   0.000228
   43  P  2  X   -0.000002  -0.000010   0.000802   0.000992  -0.000802
   44  P  2  Y    0.000013   0.000061   0.001247  -0.000709   0.000354
   45  P  2  Z   -0.000060  -0.000271   0.000269   0.000186   0.000582
   46  P  2  X    0.000001   0.000004  -0.000033  -0.000042   0.000033
   47  P  2  Y   -0.000008  -0.000026  -0.000052   0.000032  -0.000012
   48  P  2  Z    0.000036   0.000115  -0.000012  -0.000020  -0.000039
   49  P  2  X   -0.000003   0.000052  -0.000052  -0.000051   0.000064
   50  P  2  Y    0.000018  -0.000325  -0.000082  -0.000022  -0.000106
   51  P  2  Z   -0.000082   0.001441  -0.000001   0.000291   0.000339
   52  P  2 XX   -0.000003  -0.000065   0.000205  -0.000058   0.000111
   53  P  2 YY   -0.000003  -0.000056  -0.000228   0.000147  -0.000047
   54  P  2 ZZ    0.000006   0.000120   0.000023  -0.000089  -0.000064
   55  P  2 XY   -0.000000  -0.000002   0.000127   0.000152  -0.000125
   56  P  2 XZ    0.000000   0.000008   0.000092   0.000121  -0.000110
   57  P  2 YZ   -0.000002  -0.000048   0.000049  -0.000005   0.000056
   58  P  2 XX   -0.000024  -0.000018   0.000281   0.000063   0.000289
   59  P  2 YY   -0.000020  -0.000016  -0.000388   0.000348   0.000038
   60  P  2 ZZ    0.000044   0.000034   0.000107  -0.000411  -0.000327
   61  P  2 XY   -0.000001  -0.000000   0.000136   0.000148  -0.000116
   62  P  2 XZ    0.000003   0.000002   0.000284   0.000342  -0.000327
   63  P  2 YZ   -0.000018  -0.000014   0.000315  -0.000035   0.000276
   64  P  2 XXX   0.000001   0.000010   0.000023   0.000030  -0.000017
   65  P  2 YYY  -0.000006   0.000028   0.000028  -0.000074  -0.000062
   66  P  2 ZZZ  -0.000013  -0.000182  -0.000030  -0.000039  -0.000085
   67  P  2 XXY  -0.000001  -0.000162   0.000016   0.000040   0.000059
   68  P  2 XXZ   0.000010   0.000110   0.000014   0.000044   0.000078
   69  P  2 YYX   0.000000   0.000003   0.000005   0.000006  -0.000002
   70  P  2 YYZ   0.000007   0.000134   0.000026   0.000009   0.000036
   71  P  2 ZZX  -0.000001  -0.000017  -0.000036  -0.000046   0.000025
   72  P  2 ZZY   0.000008   0.000124  -0.000054   0.000060   0.000024
   73  P  2 XYZ   0.000000   0.000012   0.000017   0.000025  -0.000021
   74  P  2 XX    0.000001   0.000022  -0.000004   0.000003  -0.000000
   75  P  2 YY    0.000001   0.000019   0.000005  -0.000001   0.000003
   76  P  2 ZZ   -0.000002  -0.000041  -0.000000  -0.000002  -0.000003
   77  P  2 XY    0.000000   0.000001  -0.000003  -0.000004   0.000003
   78  P  2 XZ   -0.000000  -0.000003  -0.000001  -0.000002   0.000001
   79  P  2 YZ    0.000001   0.000016   0.000000   0.000001   0.000001
   80  O  3  S    0.000000   0.975770   0.000001   0.000028   0.000036
   81  O  3  S    0.000000  -0.001106   0.000002   0.000042   0.000052
   82  O  3  S    0.000005   0.043134  -0.000001  -0.000012  -0.000015
   83  O  3  S   -0.000066   0.004799   0.000008   0.000140   0.000174
   84  O  3  X    0.000000   0.000020  -0.000004  -0.000006   0.000004
   85  O  3  Y   -0.000000  -0.000122  -0.000007   0.000006   0.000001
   86  O  3  Z    0.000001   0.000545  -0.000002  -0.000011  -0.000016
   87  O  3  X   -0.000001  -0.000019   0.000012   0.000015  -0.000010
   88  O  3  Y    0.000004   0.000118   0.000018  -0.000018  -0.000004
   89  O  3  Z   -0.000016  -0.000526   0.000006   0.000036   0.000050
[...]
            143  C  4 XXY     0.00127     0.07629
            144  C  4 XXZ     0.00083     0.07718
            145  C  4 YYX     0.00084     0.06910
            146  C  4 YYZ     0.00136     0.06647
            147  C  4 ZZX     0.00000     0.06942
            148  C  4 ZZY     0.00000     0.06675
            149  C  4 XYZ     0.00000     0.00299
            150  C  5  S      1.95555     1.55553
            151  C  5  S      0.82763     0.43101
            152  C  5  S      0.16182     0.27789
            153  C  5  S      0.32389     0.14848
            154  C  5  X      0.27165     0.21043
            155  C  5  Y      0.29478     0.22652
            156  C  5  Z      0.29345     0.22568
            157  C  5  X      0.51351     0.26529
            158  C  5  Y      0.53897     0.27964
            159  C  5  Z      0.53821     0.28002
            160  C  5  X      0.13749     0.18355
            161  C  5  Y      0.19182     0.20291
            162  C  5  Z      0.22732     0.20917
            163  C  5 XX      0.00521     0.08562
            164  C  5 YY      0.00523     0.08695
            165  C  5 ZZ      0.00427     0.08564
            166  C  5 XY      0.00418     0.00471
            167  C  5 XZ      0.00337     0.00452
            168  C  5 YZ      0.00000     0.00378
            169  C  5 XX      0.00831     0.09207
            170  C  5 YY      0.01268     0.09058
            171  C  5 ZZ      0.01158     0.08533
            172  C  5 XY      0.01020     0.02684
            173  C  5 XZ      0.00816     0.02477
            174  C  5 YZ      0.00000     0.01543
            175  C  5 XXX     0.00092     0.15905
            176  C  5 YYY     0.00073     0.17169
            177  C  5 ZZZ     0.00081     0.16809
            178  C  5 XXY     0.00126     0.07653
            179  C  5 XXZ     0.00087     0.07831
            180  C  5 YYX     0.00079     0.06895
            181  C  5 YYZ     0.00137     0.06677
            182  C  5 ZZX     0.00000     0.06975
            183  C  5 ZZY     0.00000     0.06661
            184  C  5 XYZ     0.00000     0.00291
            185  C  6  S      1.95555     1.55591
            186  C  6  S      0.82763     0.43301
            187  C  6  S      0.16182     0.27894
            188  C  6  S      0.32390     0.14935
            189  C  6  X      0.30189     0.22933
            190  C  6  Y      0.25900     0.20596
            191  C  6  Z      0.29899     0.22917
            192  C  6  X      0.54588     0.28011
            193  C  6  Y      0.49911     0.26556
            194  C  6  Z      0.54569     0.28017
            195  C  6  X      0.20457     0.20650
            196  C  6  Y      0.10993     0.17155
            197  C  6  Z      0.24213     0.21198
            198  C  6 XX      0.00568     0.08722
            199  C  6 YY      0.00607     0.09039
            200  C  6 ZZ      0.00352     0.08677
            201  C  6 XY      0.00432     0.00317
            202  C  6 XZ      0.00268     0.00455
            203  C  6 YZ      0.00000     0.00254
            204  C  6 XX      0.01063     0.08903
            205  C  6 YY      0.01503     0.10397
            206  C  6 ZZ      0.01010     0.08714
            207  C  6 XY      0.00854     0.02212
            208  C  6 XZ      0.00662     0.01971
            209  C  6 YZ      0.00000     0.01294
            210  C  6 XXX     0.00088     0.16319
            211  C  6 YYY     0.00095     0.16876
            212  C  6 ZZZ     0.00061     0.16645
            213  C  6 XXY     0.00140     0.07019
            214  C  6 XXZ     0.00094     0.07577
            215  C  6 YYX     0.00050     0.07869
            216  C  6 YYZ     0.00146     0.07305
            217  C  6 ZZX     0.00000     0.07428
            218  C  6 ZZY     0.00000     0.06369
            219  C  6 XYZ     0.00000     0.00266
            220  H  7  S      0.25310     0.19521
            221  H  7  S      0.45296     0.24502
            222  H  7  S      0.06243     0.12002
            223  H  7  X      0.00159     0.00205
            224  H  7  Y      0.00749     0.01105
            225  H  7  Z      0.00171     0.00219
            226  H  7  X      0.01042     0.02847
            227  H  7  Y      0.00511     0.04777
            228  H  7  Z      0.00880     0.02971
            229  H  7 XX      0.00032     0.06924
            230  H  7 YY      0.00065     0.11696
            231  H  7 ZZ      0.00100     0.06981
            232  H  7 XY      0.00009     0.00484
            233  H  7 XZ      0.00084     0.00015
            234  H  7 YZ      0.00000     0.00513
            235  H  8  S      0.24783     0.19072
            236  H  8  S      0.44968     0.24022
            237  H  8  S      0.04892     0.11510
            238  H  8  X      0.00161     0.00210
            239  H  8  Y      0.00185     0.00257
            240  H  8  Z      0.00732     0.01057
            241  H  8  X      0.00968     0.02893
            242  H  8  Y      0.00787     0.02902
            243  H  8  Z      0.00638     0.04771
            244  H  8 XX      0.00091     0.06806
            245  H  8 YY      0.00012     0.07047
            246  H  8 ZZ      0.00010     0.11240
            247  H  8 XY      0.00094     0.00020
            248  H  8 XZ      0.00080     0.00490
            249  H  8 YZ      0.00000     0.00540
            250  H  9  S      0.25310     0.18750
            251  H  9  S      0.45294     0.24297
            252  H  9  S      0.06238     0.12036
            253  H  9  X      0.00587     0.00775
            254  H  9  Y      0.00249     0.00354
            255  H  9  Z      0.00243     0.00341
            256  H  9  X      0.00996     0.04405
            257  H  9  Y      0.00708     0.03119
            258  H  9  Z      0.00730     0.03206
            259  H  9 XX      0.00048     0.09969
            260  H  9 YY      0.00090     0.07532
            261  H  9 ZZ      0.00063     0.07458
            262  H  9 XY      0.00065     0.00524
            263  H  9 XZ      0.00025     0.00527
            264  H  9 YZ      0.00000     0.00166
            265  H 10  S      0.25309     0.18682
            266  H 10  S      0.45294     0.24275
            267  H 10  S      0.06237     0.12033
            268  H 10  X      0.00562     0.00742
            269  H 10  Y      0.00246     0.00346
            270  H 10  Z      0.00270     0.00378
            271  H 10  X      0.01037     0.04349
            272  H 10  Y      0.00711     0.03108
            273  H 10  Z      0.00685     0.03282
            274  H 10 XX      0.00052     0.09775
            275  H 10 YY      0.00087     0.07470
            276  H 10 ZZ      0.00061     0.07669
            277  H 10 XY      0.00062     0.00495
            278  H 10 XZ      0.00028     0.00535
            279  H 10 YZ      0.00000     0.00194
            280  H 11  S      0.24783     0.19077
            281  H 11  S      0.44968     0.24018
            282  H 11  S      0.04892     0.11507
            283  H 11  X      0.00163     0.00218
            284  H 11  Y      0.00185     0.00257
            285  H 11  Z      0.00729     0.01051
            286  H 11  X      0.01005     0.02905
            287  H 11  Y      0.00788     0.02902
            288  H 11  Z      0.00600     0.04762
            289  H 11 XX      0.00089     0.06826
            290  H 11 YY      0.00013     0.07049
            291  H 11 ZZ      0.00010     0.11226
            292  H 11 XY      0.00095     0.00022
            293  H 11 XZ      0.00080     0.00492
            294  H 11 YZ      0.00000     0.00538
            295  H 12  S      0.25310     0.19520
            296  H 12  S      0.45296     0.24503
            297  H 12  S      0.06244     0.12001
            298  H 12  X      0.00158     0.00204
            299  H 12  Y      0.00749     0.01105
            300  H 12  Z      0.00172     0.00219
            301  H 12  X      0.01051     0.02856
            302  H 12  Y      0.00516     0.04783
            303  H 12  Z      0.00867     0.02961
            304  H 12 XX      0.00033     0.06927
            305  H 12 YY      0.00065     0.11696
            306  H 12 ZZ      0.00101     0.06979
            307  H 12 XY      0.00009     0.00482
            308  H 12 XZ      0.00083     0.00014
            309  H 12 YZ      0.00000     0.00514
            310  H 13  S      0.25310     0.18712
            311  H 13  S      0.45296     0.24228
            312  H 13  S      0.06242     0.11995
            313  H 13  X      0.00542     0.00693
            314  H 13  Y      0.00261     0.00394
            315  H 13  Z      0.00276     0.00392
            316  H 13  X      0.00461     0.04120
            317  H 13  Y      0.01272     0.03327
            318  H 13  Z      0.00700     0.03262
            319  H 13 XX      0.00052     0.09608
            320  H 13 YY      0.00073     0.07610
            321  H 13 ZZ      0.00072     0.07710
            322  H 13 XY      0.00061     0.00486
            323  H 13 XZ      0.00033     0.00526
            324  H 13 YZ      0.00000     0.00212
            325  H 14  S      0.25310     0.18790
            326  H 14  S      0.45295     0.24257
            327  H 14  S      0.06239     0.11996
            328  H 14  X      0.00567     0.00727
            329  H 14  Y      0.00263     0.00404
            330  H 14  Z      0.00248     0.00354
            331  H 14  X      0.00428     0.04196
            332  H 14  Y      0.01273     0.03343
            333  H 14  Z      0.00732     0.03169
            334  H 14 XX      0.00047     0.09815
            335  H 14 YY      0.00076     0.07681
            336  H 14 ZZ      0.00075     0.07490
            337  H 14 XY      0.00062     0.00516
            338  H 14 XZ      0.00030     0.00519
            339  H 14 YZ      0.00000     0.00184
            340  H 15  S      0.24783     0.19098
            341  H 15  S      0.44969     0.24031
            342  H 15  S      0.04892     0.11512
            343  H 15  X      0.00163     0.00210
            344  H 15  Y      0.00200     0.00307
            345  H 15  Z      0.00715     0.01019
            346  H 15  X      0.00803     0.02810
            347  H 15  Y      0.01148     0.03100
            348  H 15  Z      0.00441     0.04727
            349  H 15 XX      0.00086     0.06745
            350  H 15 YY      0.00019     0.07250
            351  H 15 ZZ      0.00011     0.11147
            352  H 15 XY      0.00077     0.00028
            353  H 15 XZ      0.00094     0.00503
            354  H 15 YZ      0.00000     0.00530

          ----- MULLIKEN ATOMIC OVERLAP POPULATIONS -----
          (OFF-DIAGONAL ELEMENTS NEED TO BE MULTIPLIED BY 2)

             1           2           3           4           5

    1    8.6513660
    2   -0.0045261  13.2242241
    3    0.1011094   0.2549140   8.3249394
    4    0.0000232   0.3405693  -0.0198550   5.0110085
    5    0.0000235   0.3405681  -0.0198579  -0.0311928   5.0110149
    6    0.0000219   0.3405745  -0.0198597  -0.0311777  -0.0311800
    7    0.0003073  -0.0162762   0.0005902   0.3656682  -0.0025220
    8    0.0004767  -0.0125491   0.0012816   0.3557282  -0.0000846
    9    0.0003045  -0.0162750   0.0005861   0.3657026   0.0023845
   10    0.0003043  -0.0162760   0.0005858   0.0023843   0.3657011
   11    0.0004766  -0.0125460   0.0012818  -0.0000816   0.3557271
   12    0.0003076  -0.0162761   0.0005912  -0.0025254   0.3656656
   13    0.0003069  -0.0162727   0.0005892   0.0023858  -0.0025300
   14    0.0003053  -0.0162717   0.0005867  -0.0025270   0.0023850
   15    0.0004775  -0.0125643   0.0012816  -0.0000828  -0.0000792

             6           7           8           9          10

    6    5.0109628
    7    0.0023862   0.4859350
    8   -0.0000821  -0.0120526   0.4638348
    9   -0.0025277  -0.0180781  -0.0120595   0.4858535
   10   -0.0025219  -0.0000071  -0.0000072  -0.0000738   0.4858373
   11   -0.0000861  -0.0001454  -0.0000883  -0.0000070  -0.0120575
   12    0.0023862   0.0007850  -0.0001449  -0.0000072  -0.0180793
   13    0.3656847  -0.0000739  -0.0000075  -0.0000067   0.0007895
   14    0.3656953  -0.0000069  -0.0001448   0.0007911  -0.0000065
   15    0.3557345  -0.0000073  -0.0000924  -0.0001457  -0.0001471

            11          12          13          14          15

   11    0.4638332
   12   -0.0120531   0.4859555
   13   -0.0001432  -0.0000073   0.4859141
   14   -0.0000078  -0.0000739  -0.0180781   0.4858730
   15   -0.0000915  -0.0000069  -0.0120546  -0.0120593   0.4638466

          TOTAL MULLIKEN AND LOWDIN ATOMIC POPULATIONS
       ATOM         MULL.POP.    CHARGE          LOW.POP.     CHARGE
    1 LA            8.751285    2.248715         8.899380    2.100620
    2 P            14.361017    0.638983        14.272572    0.727428
    3 O             8.628764   -0.628764         8.305880   -0.305880
    4 C             6.356028   -0.356028         6.029928   -0.029928
    5 C             6.356023   -0.356023         6.030993   -0.030993
    6 C             6.356011   -0.356011         6.043817   -0.043817
    7 H             0.806503    0.193497         0.947623    0.052377
    8 H             0.784008    0.215992         0.928389    0.071611
    9 H             0.806442    0.193558         0.934616    0.065384
   10 H             0.806426    0.193574         0.933341    0.066659
   11 H             0.784011    0.215989         0.928494    0.071506
   12 H             0.806517    0.193483         0.947628    0.052372
   13 H             0.806496    0.193504         0.932747    0.067253
   14 H             0.806461    0.193539         0.934403    0.065597
   15 H             0.784009    0.215991         0.930187    0.069813

          MULLIKEN SPHERICAL HARMONIC POPULATIONS
       ATOM           S       P       D      F      G      H      I    TOTAL
    1 LA            2.02    6.49    0.24   0.00   0.00   0.00   0.00    8.75
    2 P             5.34    8.39    0.57   0.07   0.00   0.00   0.00   14.36
    3 O             3.44    5.15    0.03   0.00   0.00   0.00   0.00    8.63
    4 C             3.27    3.01    0.07   0.01   0.00   0.00   0.00    6.36
    5 C             3.27    3.01    0.07   0.01   0.00   0.00   0.00    6.36
    6 C             3.27    3.01    0.07   0.01   0.00   0.00   0.00    6.36
    7 H             0.77    0.04    0.00   0.00   0.00   0.00   0.00    0.81
    8 H             0.75    0.03    0.00   0.00   0.00   0.00   0.00    0.78
    9 H             0.77    0.04    0.00   0.00   0.00   0.00   0.00    0.81
   10 H             0.77    0.04    0.00   0.00   0.00   0.00   0.00    0.81
   11 H             0.75    0.03    0.00   0.00   0.00   0.00   0.00    0.78
   12 H             0.77    0.04    0.00   0.00   0.00   0.00   0.00    0.81
   13 H             0.77    0.04    0.00   0.00   0.00   0.00   0.00    0.81
   14 H             0.77    0.04    0.00   0.00   0.00   0.00   0.00    0.81
   15 H             0.75    0.03    0.00   0.00   0.00   0.00   0.00    0.78

          -------------------------------
          BOND ORDER AND VALENCE ANALYSIS     BOND ORDER THRESHOLD=0.050
          -------------------------------

                   BOND                       BOND                       BOND
  ATOM PAIR DIST  ORDER      ATOM PAIR DIST  ORDER      ATOM PAIR DIST  ORDER
    1   3  2.500  0.402        2   3  1.767  0.799        2   4  1.774  1.007
    2   5  1.774  1.007        2   6  1.774  1.007        4   7  1.089  0.879
    4   8  1.095  0.858        4   9  1.089  0.879        5  10  1.089  0.879
    5  11  1.095  0.858        5  12  1.089  0.879        6  13  1.089  0.879
    6  14  1.089  0.879        6  15  1.095  0.858

                       TOTAL       BONDED        FREE
      ATOM            VALENCE     VALENCE     VALENCE
    1 LA               -0.619       0.442      -1.060
    2 P                 4.615       4.187       0.428
    3 O                 2.304       1.246       1.059
    4 C                 3.931       3.638       0.293
    5 C                 3.931       3.638       0.293
    6 C                 3.931       3.638       0.293
    7 H                 0.978       0.927       0.051
    8 H                 0.969       0.918       0.051
    9 H                 0.978       0.927       0.051
   10 H                 0.978       0.927       0.051
   11 H                 0.969       0.918       0.051
   12 H                 0.978       0.927       0.051
   13 H                 0.978       0.927       0.051
   14 H                 0.978       0.927       0.051
   15 H                 0.969       0.918       0.051

          ---------------------
          ELECTROSTATIC MOMENTS
          ---------------------

 POINT   1           X           Y           Z (BOHR)    CHARGE
                -0.218609    1.449115   -4.556058        3.00 (A.U.)
         DX          DY          DZ         /D/  (DEBYE)
    -0.042440    0.266708   -1.188520    1.218817
 ...... END OF PROPERTY EVALUATION ......
 CPU     0: STEP CPU TIME=     0.23 TOTAL CPU TIME=     1305.6 (   21.8 MIN)
 TOTAL WALL CLOCK TIME=     1325.0 SECONDS, CPU UTILIZATION IS  98.54%
  $VIB   
          IVIB=   0 IATOM=   0 ICOORD=   0 E=     -565.5783016985
 -2.058646022E-07 9.677594757E-07 2.243434013E-07-2.544546672E-06 1.586891701E-05
 -5.220168011E-05 2.647090846E-06 3.525304853E-06-4.634249489E-06-2.819770497E-05
  2.934974508E-05-7.184595287E-05 2.386054893E-05 2.765382775E-05-7.268837564E-05
 -3.119043083E-06-1.357760657E-05-8.980057282E-05 3.155380681E-05 1.196854284E-06
  4.598628910E-05-9.457686230E-06 1.025378992E-05 2.141158236E-06 8.103826256E-06
 -4.928637397E-05 4.540634671E-05-3.444508750E-06-4.738329356E-05 4.556879963E-05
  7.072600098E-06 1.173831747E-05 1.843703422E-06-2.847448509E-05 6.316949715E-07
  4.723848383E-05 2.818323298E-05 1.074512329E-05 4.973225727E-05-2.704672228E-05
  1.030786370E-05 5.753162038E-05 1.069455757E-06-1.199192372E-05-4.502171056E-06
 -4.244007072E-02 2.667076680E-01-1.188520271E+00
 ......END OF GEOMETRY SEARCH......
 CPU     0: STEP CPU TIME=     0.00 TOTAL CPU TIME=     1305.6 (   21.8 MIN)
 TOTAL WALL CLOCK TIME=     1325.0 SECONDS, CPU UTILIZATION IS  98.53%
               2991967  WORDS OF DYNAMIC MEMORY USED
 EXECUTION OF GAMESS TERMINATED NORMALLY Wed Jun  8 23:26:01 2016
 DDI: 44487344 bytes (42.4 MB / 5 MWords) used by master data server.

 ----------------------------------------
 CPU timing information for all processes
 ========================================
 0: 1303.405 + 2.274 = 1305.680
 1: 1295.358 + 2.33 = 1297.391
 2: 1302.262 + 2.194 = 1304.456
 3: 1295.696 + 2.217 = 1297.913
 4: 1304.919 + 2.166 = 1307.86
 5: 1304.927 + 2.96 = 1307.24
 6: 1306.99 + 2.238 = 1308.338
 7: 1303.573 + 2.50 = 1305.624
 8: 1297.764 + 2.192 = 1299.957
 9: 1306.478 + 2.67 = 1308.546
 10: 1306.528 + 2.107 = 1308.636
 11: 1304.977 + 2.165 = 1307.143
 12: 1305.305 + 2.129 = 1307.435
 13: 1305.378 + 2.139 = 1307.518
 14: 1293.702 + 2.105 = 1295.808
 15: 1303.357 + 1.692 = 1305.50
 16: 0.15 + 0.68 = 0.84
 17: 0.06 + 0.79 = 0.86
 18: 0.10 + 0.72 = 0.83
 19: 0.23 + 0.63 = 0.87
 20: 0.10 + 0.74 = 0.85
 21: 0.11 + 0.72 = 0.84
 22: 0.20 + 0.52 = 0.73
 23: 0.19 + 0.68 = 0.88
 24: 0.18 + 0.63 = 0.82
 25: 0.24 + 0.60 = 0.85
 26: 0.19 + 0.62 = 0.82
 27: 0.17 + 0.62 = 0.80
 28: 0.13 + 0.73 = 0.87
 29: 0.24 + 0.58 = 0.83
 30: 0.13 + 0.72 = 0.86
 31: 0.20 + 0.65 = 0.86
 ----------------------------------------
unset echo
----- accounting info -----
Files used on the master node node216 were:
-rw-r--r-- 1 fzahari quantum     1990 Jun  8 23:03 /local/scratch/fzahari/196566.share/bnd_var-250.F05
-rw-r--r-- 1 fzahari quantum 17178000 Jun  8 23:26 /local/scratch/fzahari/196566.share/bnd_var-250.F10
-rw-r--r-- 1 fzahari quantum        8 Jun  8 23:03 /local/scratch/fzahari/196566.share/bnd_var-250.nodes.mpd
ls: No match.
ls: No match.
ls: No match.
Wed Jun  8 23:26:04 CDT 2016
20840.639u 39.618s 22:09.38 1570.6%	0+0k 104+208880io 0pf+0w
