----- GAMESS execution script 'rungms' -----
This job is running on host node202
under operating system Linux at Thu Jun 9 11:05:03 CDT 2016
PBS has assigned the following compute nodes to this run:
node202
Available scratch disk space (Kbyte units) at beginning of the job is
Filesystem           1K-blocks      Used Available Use% Mounted on
/dev/sda7            2670838024    245216 2534922024   1% /local
GAMESS temporary binary files will be written to /local/scratch/fzahari/196593.share
GAMESS supplementary output files will be written to /work1/quantum/fzahari/scr
Copying input file bnd_var-023.inp to your run's scratch directory...
cp bnd_var-023.inp /local/scratch/fzahari/196593.share/bnd_var-023.F05
unset echo
setenv I_MPI_WAIT_MODE enable
setenv I_MPI_PIN disable
setenv I_MPI_DEBUG 0
setenv I_MPI_STATS 0
setenv I_MPI_FABRICS dapl
setenv I_MPI_DAT_LIBRARY libdat2.so
unset echo
MPI kickoff will run GAMESS on 16 cores in 1 nodes.
The binary to be executed is /home/mschmidt/gamess/gamess.132.x
MPI will run 16 compute processes and 16 data servers,
    placing 16 of each process type onto each node.
The scratch disk space on each node is /local/scratch/fzahari/196593.share, with free space
Filesystem           1K-blocks      Used Available Use% Mounted on
/dev/sda7            2670838024    245240 2534922000   1% /local
setenv I_MPI_HYDRA_ENV all
setenv I_MPI_PERHOST 32
unset echo
mpiexec.hydra -f /local/scratch/fzahari/196593.share/bnd_var-023.processes.mpd -n 32 /home/mschmidt/gamess/gamess.132.x
          ******************************************************
          *         GAMESS VERSION =  5 DEC 2014 (R1)          *
          *             FROM IOWA STATE UNIVERSITY             *
          * M.W.SCHMIDT, K.K.BALDRIDGE, J.A.BOATZ, S.T.ELBERT, *
          *   M.S.GORDON, J.H.JENSEN, S.KOSEKI, N.MATSUNAGA,   *
          *          K.A.NGUYEN, S.J.SU, T.L.WINDUS,           *
          *       TOGETHER WITH M.DUPUIS, J.A.MONTGOMERY       *
          *         J.COMPUT.CHEM.  14, 1347-1363(1993)        *
          **************** 64 BIT INTEL VERSION ****************

  SINCE 1993, STUDENTS AND POSTDOCS WORKING AT IOWA STATE UNIVERSITY
  AND ALSO IN THEIR VARIOUS JOBS AFTER LEAVING ISU HAVE MADE IMPORTANT
  CONTRIBUTIONS TO THE CODE:
     IVANA ADAMOVIC, CHRISTINE AIKENS, YURI ALEXEEV, POOJA ARORA,
     ANDREY ASADCHEV, ROB BELL, PRADIPTA BANDYOPADHYAY, JONATHAN BENTZ,
     BRETT BODE, KURT BRORSEN, CALEB CARLIN, GALINA CHABAN, WEI CHEN,
     CHEOL HO CHOI, PAUL DAY, ALBERT DEFUSCO, NUWAN DESILVA, TIM DUDLEY,
     DMITRI FEDOROV, GRAHAM FLETCHER, MARK FREITAG, KURT GLAESEMANN,
     DAN KEMP, GRANT MERRILL, NORIYUKI MINEZAWA, JONATHAN MULLIN,
     TAKESHI NAGATA, SEAN NEDD, HEATHER NETZLOFF, BOSILJKA NJEGIC, RYAN OLSON,
     MIKE PAK, SPENCER PRUITT, LUKE ROSKOP, JIM SHOEMAKER, LYUDMILA SLIPCHENKO,
     TONY SMITH, SAROM SOK, JIE SONG, TETSUYA TAKETSUGU, SIMON WEBB,
     PENG XU, SOOHAENG YOO, FEDERICO ZAHARIEV

  ADDITIONAL CODE HAS BEEN PROVIDED BY COLLABORATORS IN OTHER GROUPS:
     IOWA STATE UNIVERSITY:
          JOE IVANIC, AARON WEST, LAIMUTIS BYTAUTAS, KLAUS RUEDENBERG
     UNIVERSITY OF TOKYO: KIMIHIKO HIRAO, TAKAHITO NAKAJIMA,
          TAKAO TSUNEDA, MUNEAKI KAMIYA, SUSUMU YANAGISAWA,
          KIYOSHI YAGI, MAHITO CHIBA, SEIKEN TOKURA, NAOAKI KAWAKAMI
     UNIVERSITY OF AARHUS: FRANK JENSEN
     UNIVERSITY OF IOWA: VISVALDAS KAIRYS, HUI LI
     NATIONAL INST. OF STANDARDS AND TECHNOLOGY: WALT STEVENS, DAVID GARMER
     UNIVERSITY OF PISA: BENEDETTA MENNUCCI, JACOPO TOMASI
     UNIVERSITY OF MEMPHIS: HENRY KURTZ, PRAKASHAN KORAMBATH
     UNIVERSITY OF ALBERTA: TOBY ZENG, MARIUSZ KLOBUKOWSKI
     UNIVERSITY OF NEW ENGLAND: MARK SPACKMAN
     MIE UNIVERSITY: HIROAKI UMEDA
     NAT. INST. OF ADVANCED INDUSTRIAL SCIENCE AND TECHNOLOGY: KAZUO KITAURA
     MICHIGAN STATE UNIVERSITY:
          KAROL KOWALSKI, MARTA WLOCH, JEFFREY GOUR, JESSE LUTZ,
          WEI LI, PIOTR PIECUCH
     UNIVERSITY OF SILESIA: MONIKA MUSIAL, STANISLAW KUCHARSKI
     FACULTES UNIVERSITAIRES NOTRE-DAME DE LA PAIX:
          OLIVIER QUINET, BENOIT CHAMPAGNE
     UNIVERSITY OF CALIFORNIA - SANTA BARBARA: BERNARD KIRTMAN
     INSTITUTE FOR MOLECULAR SCIENCE:
          KAZUYA ISHIMURA, MICHIO KATOUDA, AND SHIGERU NAGASE
     UNIVERSITY OF NOTRE DAME: ANNA POMOGAEVA, DAN CHIPMAN
     KYUSHU UNIVERSITY:
          HARUYUKI NAKANO,
          FENG LONG GU, JACEK KORCHOWIEC, MARCIN MAKOWSKI, AND YURIKO AOKI,
          HIROTOSHI MORI AND EISAKU MIYOSHI
     PENNSYLVANIA STATE UNIVERSITY:
          TZVETELIN IORDANOV, CHET SWALINA, JONATHAN SKONE,
          SHARON HAMMES-SCHIFFER
     WASEDA UNIVERSITY:
          MASATO KOBAYASHI, TOMOKO AKAMA, TSUGUKI TOUMA,
          TAKESHI YOSHIKAWA, YASUHIRO IKABATA, HIROMI NAKAI
     NANJING UNIVERSITY: SHUHUA LI
     UNIVERSITY OF NEBRASKA:
          PEIFENG SU, DEJUN SI, NANDUN THELLAMUREGE, YALI WANG, HUI LI
     UNIVERSITY OF ZURICH: ROBERTO PEVERATI, KIM BALDRIDGE
     N. COPERNICUS UNIVERSITY AND JACKSON STATE UNIVERSITY:
          MARIA BARYSZ
     UNIVERSITY OF COPENHAGEN: CASPER STEINMANN
     TOKYO INSTITUTE OF TECHNOLOGY: HIROYA NAKATA
     NAGOYA UNIVERSITY: YOSHIO NISHIMOTO, STEPHAN IRLE


 PARALLEL VERSION RUNNING ON       16 PROCESSORS IN        1 NODES.

 EXECUTION OF GAMESS BEGUN Thu Jun  9 11:05:04 2016

            ECHO OF THE FIRST FEW INPUT CARDS -
 INPUT CARD> $ZMAT DLC=.T. AUTO=.T. $END                                                    
 INPUT CARD> $ZMAT IFZMAT(1)=1, 1 , 3  FVALUE(1)= 2.3 $END                                  
 INPUT CARD> $CONTRL COORD=UNIQUE NZVAR= 39 $END                                            
 INPUT CARD> $CONTRL ICHARG=+3 MULT=1                                                       
 INPUT CARD>         MPLEVL=2                                                               
 INPUT CARD>         SCFTYP=RHF                                                             
 INPUT CARD>         MAXIT=200 ISPHER=1 ICUT=11                                             
 INPUT CARD>         RUNTYP=OPTIMIZE                                                        
 INPUT CARD>         PP=READ                                                                
 INPUT CARD>         $END                                                                   
 INPUT CARD> $SCF    DIRSCF=.T. FDIFF=.F. $END                                              
 INPUT CARD> $TRANS  DIRTRF=.T. $END                                                        
 INPUT CARD> $SYSTEM MWORDS=300 MEMDDI=300 $END                                             
 INPUT CARD> $GUESS  GUESS=HUCKEL $END                                                      
 INPUT CARD> $BASIS  BASNAM(1)=METAL,                                                       
 INPUT CARD>                   LIGP,                                                        
 INPUT CARD>                   LIGO,                                                        
 INPUT CARD>                   LIGC,                                                        
 INPUT CARD>                   LIGC,                                                        
 INPUT CARD>                   LIGC,                                                        
 INPUT CARD>                   LIGH,                                                        
 INPUT CARD>                   LIGH,                                                        
 INPUT CARD>                   LIGH,                                                        
 INPUT CARD>                   LIGH,                                                        
 INPUT CARD>                   LIGH,                                                        
 INPUT CARD>                   LIGH,                                                        
 INPUT CARD>                   LIGH,                                                        
 INPUT CARD>                   LIGH,                                                        
 INPUT CARD>                   LIGH                                                         
 INPUT CARD> $END                                                                           
 INPUT CARD> $DATA                                                                          
 INPUT CARD>                                                                                
 INPUT CARD> C1                                                                             
 INPUT CARD> LA 57.0 -0.1739353441 1.134168269 -4.0490164368                                
 INPUT CARD> P 15.0 -0.0331705341896 0.246998180758 -0.0930501180527                        
 INPUT CARD> O 8.0 -0.0949830571896 0.631239100658 -1.80606552605                           
 INPUT CARD> C 6.0 -1.48266243029 0.959453944558 0.642626757347                             
 INPUT CARD> C 6.0 1.45935642161 0.969742814058 0.539361069547                              
 INPUT CARD> C 6.0 -0.0222405547896 -1.52328186714 0.0337126351473                          
 INPUT CARD> H 1.0 -1.48441109709 2.04228701556 0.529255359347                              
 INPUT CARD> H 1.0 -1.44592983399 0.723251166958 1.71051928125                              
 INPUT CARD> H 1.0 -2.38705701909 0.521748810558 0.223476242347                             
 INPUT CARD> H 1.0 2.33542491021 0.537775711858 0.0585307877473                             
 INPUT CARD> H 1.0 1.49854222091 0.733180942958 1.60710409345                               
 INPUT CARD> H 1.0 1.44611928041 2.05249648886 0.426502066847                               
 INPUT CARD> H 1.0 0.85994994491 -1.94247321234 -0.447354670353                             
 INPUT CARD> H 1.0 -0.93362205649 -1.94932835514 -0.382486569553                            
 INPUT CARD> H 1.0 0.0172696339104 -1.76462869164 1.10028278905                             
 INPUT CARD> $END                                                                           
 INPUT CARD>!                                                                               
  300000000 WORDS OF MEMORY AVAILABLE

     BASIS OPTIONS
     -------------
     GBASIS=             IGAUSS=       0      POLAR=NONE    
     NDFUNC=       0     NFFUNC=       0     DIFFSP=       F
     NPFUNC=       0      DIFFS=       F     BASNAM=METAL   

 USING BASNAM FOR ATOM CUSTOMIZED BASIS CONSTRUCTION
     ----------------
     ATOM  BASIS NAME
     ----------------
       1   METAL   
       2   LIGP    
       3   LIGO    
       4   LIGC    
       5   LIGC    
       6   LIGC    
       7   LIGH    
       8   LIGH    
       9   LIGH    
      10   LIGH    
      11   LIGH    
      12   LIGH    
      13   LIGH    
      14   LIGH    
      15   LIGH    
 NOW LOCATING ALL   15 BASIS SETS IN YOUR INPUT FILE...
 FOUND BASIS SET  $METAL 
  SBKJC                        
                               
  $END                         
 FOUND BASIS SET  $LIGP  
  CCT                          
                               
  $END                         
 FOUND BASIS SET  $LIGO  
  CCT                          
                               
  $END                         
 FOUND BASIS SET  $LIGC  
  CCT                          
                               
  $END                         
 FOUND BASIS SET  $LIGH  
  CCT                          
                               
  $END                         
    5 UNIQUE ATOM CUSTOMIZED BASIS SETS WERE FOUND.

     SEARCHING FOR $MCP
     $MCP GROUP NOT FOUND


     RUN TITLE
     ---------
                                                                                 

 THE POINT GROUP OF THE MOLECULE IS C1      
 THE ORDER OF THE PRINCIPAL AXIS IS     0

 ATOM      ATOMIC                      COORDINATES (BOHR)
           CHARGE         X                   Y                   Z
 LA         57.0    -0.3286901399        2.1432672524       -7.6515315853
 P          15.0    -0.0626832205        0.4667588811       -0.1758392262
 O           8.0    -0.1794919516        1.1928689330       -3.4129689601
 C           6.0    -2.8018257255        1.8131050531        1.2143884838
 C           6.0     2.7577837553        1.8325481971        1.0192446299
 C           6.0    -0.0420285544       -2.8785853310        0.0637076428
 H           1.0    -2.8051302266        3.8593628477        1.0001476067
 H           1.0    -2.7324111837        1.3667465259        3.2324127383
 H           1.0    -4.5108836831        0.9859622864        0.4223088628
 H           1.0     4.4133131452        1.0162487383        0.1106071507
 H           1.0     2.8318341786        1.3855110816        3.0369863704
 H           1.0     2.7327691855        3.8786559547        0.8059720395
 H           1.0     1.6250697590       -3.6707421098       -0.8453777463
 H           1.0    -1.7642898629       -3.6836964513       -0.7227948104
 H           1.0     0.0326348760       -3.3346646973        2.0792329803

          INTERNUCLEAR DISTANCES (ANGS.)
          ------------------------------

                1 LA         2 P          3 O          4 C          5 C     

   1 LA      0.0000000    4.0566680    2.3000000 *  4.8738904    4.8731803  
   2 P       4.0566680    0.0000000    1.7566683 *  1.7747790 *  1.7748072 *
   3 O       2.3000000 *  1.7566683 *  0.0000000    2.8336325 *  2.8340046 *
   4 C       4.8738904    1.7747790 *  2.8336325 *  0.0000000    2.9438486 *
   5 C       4.8731803    1.7748072 *  2.8340046 *  2.9438486 *  0.0000000  
   6 C       4.8737798    1.7748464 *  2.8340846 *  2.9440764 *  2.9438040 *
   7 H       4.8479479    2.3909047 *  3.0619096    1.0887532 *  3.1330848  
   8 H       5.9126199    2.3399932 *  3.7682744    1.0943196 *  3.1421422  
   9 H       4.8504803    2.3909116 *  3.0634345    1.0886701 *  3.8852771  
  10 H       4.8502080    2.3911865 *  3.0646921    3.8854564    1.0887099 *
  11 H       5.9118247    2.3394534 *  3.7682147    3.1414960    1.0943364 *
  12 H       4.8474911    2.3912459 *  3.0625687    3.1335625    1.0887001 *
  13 H       4.8483615    2.3910209 *  3.0630030    3.8854953    3.1327142  
  14 H       4.8506202    2.3913253 *  3.0641835    3.1326214    3.8855020  
  15 H       5.9122640    2.3394936 *  3.7682415    3.1432263    3.1418203  

                6 C          7 H          8 H          9 H         10 H     

   1 LA      4.8737798    4.8479479    5.9126199    4.8504803    4.8502080  
   2 P       1.7748464 *  2.3909047 *  2.3399932 *  2.3909116 *  2.3911865 *
   3 O       2.8340846 *  3.0619096    3.7682744    3.0634345    3.0646921  
   4 C       2.9440764 *  1.0887532 *  1.0943196 *  1.0886701 *  3.8854564  
   5 C       2.9438040 *  3.1330848    3.1421422    3.8852771    1.0887099 *
   6 C       0.0000000    3.8854584    3.1441187    3.1321746    3.1316387  
   7 H       3.8854584    0.0000000    1.7710790 *  1.7945214 *  4.1323459  
   8 H       3.1441187    1.7710790 *  0.0000000    1.7713330 *  4.1306308  
   9 H       3.1321746    1.7945214 *  1.7713330 *  0.0000000    4.7253888  
  10 H       3.1316387    4.1323459    4.1306308    4.7253888    0.0000000  
  11 H       3.1432412    3.4312574    2.9463043 *  4.1300134    1.7710548 *
  12 H       3.8854285    2.9323490 *  3.4321337    4.1325112    1.7946159 *
  13 H       1.0887641 *  4.7252629    4.1327458    4.1310360    2.9299456 *
  14 H       1.0887395 *  4.1312995    3.4330473    2.9301683 *  4.1312045  
  15 H       1.0942492 *  4.1320364    2.9500657 *  3.4317777    3.4293086  

               11 H         12 H         13 H         14 H         15 H     

   1 LA      5.9118247    4.8474911    4.8483615    4.8506202    5.9122640  
   2 P       2.3394534 *  2.3912459 *  2.3910209 *  2.3913253 *  2.3394936 *
   3 O       3.7682147    3.0625687    3.0630030    3.0641835    3.7682415  
   4 C       3.1414960    3.1335625    3.8854953    3.1326214    3.1432263  
   5 C       1.0943364 *  1.0887001 *  3.1327142    3.8855020    3.1418203  
   6 C       3.1432412    3.8854285    1.0887641 *  1.0887395 *  1.0942492 *
   7 H       3.4312574    2.9323490 *  4.7252629    4.1312995    4.1320364  
   8 H       2.9463043 *  3.4321337    4.1327458    3.4330473    2.9500657 *
   9 H       4.1300134    4.1325112    4.1310360    2.9301683 *  3.4317777  
  10 H       1.7710548 *  1.7946159 *  2.9299456 *  4.1312045    3.4293086  
  11 H       0.0000000    1.7712038 *  3.4333258    4.1315554    2.9478957 *
  12 H       1.7712038 *  0.0000000    4.1312229    4.7256993    4.1311060  
  13 H       3.4333258    4.1312229    0.0000000    1.7947578 *  1.7711354 *
  14 H       4.1315554    4.7256993    1.7947578 *  0.0000000    1.7711335 *
  15 H       2.9478957 *  4.1311060    1.7711354 *  1.7711335 *  0.0000000  

  * ... LESS THAN  3.000


     ATOMIC BASIS SET
     ----------------
 THE CONTRACTED PRIMITIVE FUNCTIONS HAVE BEEN UNNORMALIZED
 THE CONTRACTED BASIS FUNCTIONS ARE NOW NORMALIZED TO UNITY

  SHELL TYPE  PRIMITIVE        EXPONENT          CONTRACTION COEFFICIENT(S)

 LA        

      1   L       1             9.1730000   -0.054833023521   -0.009797991527
      1   L       2             3.1200000    0.676604290237    0.231261800020
      1   L       3             2.1040000   -1.034429443730   -0.601214480110
      1   L       4             1.3200000   -0.518907222591    0.195188831214
      1   L       5             0.4960000    1.631603699894    1.076136069429

      2   D       6             1.2380000   -0.053797021791
      2   D       7             0.6061000    0.380144153981
      2   D       8             0.2518000    0.720349291785

      3   D       9             0.0978700    1.000000000000

      4   L      10             0.6182000   -0.107095028128   -0.051868986063
      4   L      11             0.0454600    1.033448271434    1.008107729120

      5   L      12             0.0177500    1.000000000000    1.000000000000

      6   L      13             0.2004000    1.000000000000    1.000000000000

      7   D      14             0.0353600    1.000000000000

 P         

      8   S      15        312400.0000000    0.000057689641
      8   S      16         46800.0000000    0.000448246591
      8   S      17         10650.0000000    0.002349131061
      8   S      18          3018.0000000    0.009781571802
      8   S      19           986.8000000    0.034142936511
      8   S      20           357.4000000    0.100192955985
      8   S      21           139.6000000    0.234346168617
      8   S      22            57.6300000    0.382391849918
      8   S      23            24.6000000    0.318052941833
      8   S      24            10.1200000    0.070770999093
      8   S      25             4.2830000   -0.001817789630
      8   S      26             1.8050000    0.002161561737
      8   S      27             0.2782000    0.000432249354

      9   S      28        312400.0000000   -0.000016380204
      9   S      29         46800.0000000   -0.000127233535
      9   S      30         10650.0000000   -0.000668625166
      9   S      31          3018.0000000   -0.002795303744
      9   S      32           986.8000000   -0.009928227435
      9   S      33           357.4000000   -0.030244566456
      9   S      34           139.6000000   -0.077884705328
      9   S      35            57.6300000   -0.156724571545
      9   S      36            24.6000000   -0.198042753651
      9   S      37            10.1200000    0.037971251521
      9   S      38             4.2830000    0.552751544147
      9   S      39             1.8050000    0.542611452452
      9   S      40             0.2782000   -0.009675942874

     10   S      41        312400.0000000    0.000006865735
     10   S      42         46800.0000000    0.000053281983
     10   S      43         10650.0000000    0.000280421002
     10   S      44          3018.0000000    0.001170789768
     10   S      45           986.8000000    0.004173591138
     10   S      46           357.4000000    0.012720496749
     10   S      47           139.6000000    0.033152766352
     10   S      48            57.6300000    0.067671246836
     10   S      49            24.6000000    0.089831018862
     10   S      50            10.1200000   -0.020305232360
     10   S      51             4.2830000   -0.313280408979
     10   S      52             1.8050000   -0.563687905527
     10   S      53             0.2782000    1.117494073734

     11   S      54             0.6158000    1.000000000000

     12   S      55             0.1055000    1.000000000000

     13   P      56           504.9000000    0.002433660431
     13   P      57           119.4000000    0.019305559477
     13   P      58            37.9600000    0.088473106893
     13   P      59            13.9500000    0.254701981099
     13   P      60             5.4570000    0.440199242653
     13   P      61             2.1770000    0.383632006272
     13   P      62             0.2877000   -0.003946337074

     14   P      63           504.9000000   -0.000954298933
     14   P      64           119.4000000   -0.007664025747
     14   P      65            37.9600000   -0.035465925259
     14   P      66            13.9500000   -0.106164716437
     14   P      67             5.4570000   -0.187210586037
     14   P      68             2.1770000   -0.181495819791
     14   P      69             0.2877000    0.991672644618

     15   P      70             0.8010000    1.000000000000

     16   P      71             0.0971400    1.000000000000

     17   D      72             0.6480000    1.000000000000

     18   D      73             0.2180000    1.000000000000

     19   F      74             0.4520000    1.000000000000

     20   D      75             3.1200000    1.000000000000

 O         

     21   S      76         15330.0000000    0.000520198307
     21   S      77          2299.0000000    0.004023344781
     21   S      78           522.4000000    0.020729083329
     21   S      79           147.3000000    0.081082327080
     21   S      80            47.5500000    0.236226352118
     21   S      81            16.7600000    0.443518209420
     21   S      82             6.2070000    0.358670588689
     21   S      83             0.6882000   -0.008349797237

     22   S      84         15330.0000000   -0.000197236012
     22   S      85          2299.0000000   -0.001535010700
     22   S      86           522.4000000   -0.007951183914
     22   S      87           147.3000000   -0.032113452892
     22   S      88            47.5500000   -0.100269643049
     22   S      89            16.7600000   -0.234047111838
     22   S      90             6.2070000   -0.301410927756
     22   S      91             0.6882000    1.034919649508

     23   S      92             1.7520000    1.000000000000

     24   S      93             0.2384000    1.000000000000

     25   P      94            34.4600000    0.041163489568
     25   P      95             7.7490000    0.257762835858
     25   P      96             2.2800000    0.802419274427

     26   P      97             0.7156000    1.000000000000

     27   P      98             0.2140000    1.000000000000

     28   D      99             2.3140000    1.000000000000

     29   D     100             0.6450000    1.000000000000

     30   F     101             1.4280000    1.000000000000

 C         

     31   S     102          8236.0000000    0.000542430189
     31   S     103          1235.0000000    0.004196427901
     31   S     104           280.8000000    0.021540914108
     31   S     105            79.2700000    0.083614949614
     31   S     106            25.5900000    0.239871618922
     31   S     107             8.9970000    0.443751820060
     31   S     108             3.3190000    0.353579696469
     31   S     109             0.3643000   -0.009176366076

     32   S     110          8236.0000000   -0.000196392234
     32   S     111          1235.0000000   -0.001525950274
     32   S     112           280.8000000   -0.007890449028
     32   S     113            79.2700000   -0.031514870532
     32   S     114            25.5900000   -0.096910008320
     32   S     115             8.9970000   -0.220541526288
     32   S     116             3.3190000   -0.296069112937
     32   S     117             0.3643000    1.040503432950

     33   S     118             0.9059000    1.000000000000

     34   S     119             0.1285000    1.000000000000

     35   P     120            18.7100000    0.039426387165
     35   P     121             4.1330000    0.244088984924
     35   P     122             1.2000000    0.815492008943

     36   P     123             0.3827000    1.000000000000

     37   P     124             0.1209000    1.000000000000

     38   D     125             1.0970000    1.000000000000

     39   D     126             0.3180000    1.000000000000

     40   F     127             0.7610000    1.000000000000

 C         

     41   S     128          8236.0000000    0.000542430189
     41   S     129          1235.0000000    0.004196427901
     41   S     130           280.8000000    0.021540914108
     41   S     131            79.2700000    0.083614949614
     41   S     132            25.5900000    0.239871618922
     41   S     133             8.9970000    0.443751820060
     41   S     134             3.3190000    0.353579696469
     41   S     135             0.3643000   -0.009176366076

     42   S     136          8236.0000000   -0.000196392234
     42   S     137          1235.0000000   -0.001525950274
     42   S     138           280.8000000   -0.007890449028
     42   S     139            79.2700000   -0.031514870532
     42   S     140            25.5900000   -0.096910008320
     42   S     141             8.9970000   -0.220541526288
     42   S     142             3.3190000   -0.296069112937
     42   S     143             0.3643000    1.040503432950

     43   S     144             0.9059000    1.000000000000

     44   S     145             0.1285000    1.000000000000

     45   P     146            18.7100000    0.039426387165
     45   P     147             4.1330000    0.244088984924
     45   P     148             1.2000000    0.815492008943

     46   P     149             0.3827000    1.000000000000

     47   P     150             0.1209000    1.000000000000

     48   D     151             1.0970000    1.000000000000

     49   D     152             0.3180000    1.000000000000

     50   F     153             0.7610000    1.000000000000

 C         

     51   S     154          8236.0000000    0.000542430189
     51   S     155          1235.0000000    0.004196427901
     51   S     156           280.8000000    0.021540914108
     51   S     157            79.2700000    0.083614949614
     51   S     158            25.5900000    0.239871618922
     51   S     159             8.9970000    0.443751820060
     51   S     160             3.3190000    0.353579696469
     51   S     161             0.3643000   -0.009176366076

     52   S     162          8236.0000000   -0.000196392234
     52   S     163          1235.0000000   -0.001525950274
     52   S     164           280.8000000   -0.007890449028
     52   S     165            79.2700000   -0.031514870532
     52   S     166            25.5900000   -0.096910008320
     52   S     167             8.9970000   -0.220541526288
     52   S     168             3.3190000   -0.296069112937
     52   S     169             0.3643000    1.040503432950

     53   S     170             0.9059000    1.000000000000

     54   S     171             0.1285000    1.000000000000

     55   P     172            18.7100000    0.039426387165
     55   P     173             4.1330000    0.244088984924
     55   P     174             1.2000000    0.815492008943

     56   P     175             0.3827000    1.000000000000

     57   P     176             0.1209000    1.000000000000

     58   D     177             1.0970000    1.000000000000

     59   D     178             0.3180000    1.000000000000

     60   F     179             0.7610000    1.000000000000

 H         

     61   S     180            33.8700000    0.025494863235
     61   S     181             5.0950000    0.190362765893
     61   S     182             1.1590000    0.852162022245

     62   S     183             0.3258000    1.000000000000

     63   S     184             0.1027000    1.000000000000

     64   P     185             1.4070000    1.000000000000

     65   P     186             0.3880000    1.000000000000

     66   D     187             1.0570000    1.000000000000

 H         

     67   S     188            33.8700000    0.025494863235
     67   S     189             5.0950000    0.190362765893
     67   S     190             1.1590000    0.852162022245

     68   S     191             0.3258000    1.000000000000

     69   S     192             0.1027000    1.000000000000

     70   P     193             1.4070000    1.000000000000

     71   P     194             0.3880000    1.000000000000

     72   D     195             1.0570000    1.000000000000

 H         

     73   S     196            33.8700000    0.025494863235
     73   S     197             5.0950000    0.190362765893
     73   S     198             1.1590000    0.852162022245

     74   S     199             0.3258000    1.000000000000

     75   S     200             0.1027000    1.000000000000

     76   P     201             1.4070000    1.000000000000

     77   P     202             0.3880000    1.000000000000

     78   D     203             1.0570000    1.000000000000

 H         

     79   S     204            33.8700000    0.025494863235
     79   S     205             5.0950000    0.190362765893
     79   S     206             1.1590000    0.852162022245

     80   S     207             0.3258000    1.000000000000

     81   S     208             0.1027000    1.000000000000

     82   P     209             1.4070000    1.000000000000

     83   P     210             0.3880000    1.000000000000

     84   D     211             1.0570000    1.000000000000

 H         

     85   S     212            33.8700000    0.025494863235
     85   S     213             5.0950000    0.190362765893
     85   S     214             1.1590000    0.852162022245

     86   S     215             0.3258000    1.000000000000

     87   S     216             0.1027000    1.000000000000

     88   P     217             1.4070000    1.000000000000

     89   P     218             0.3880000    1.000000000000

     90   D     219             1.0570000    1.000000000000

 H         

     91   S     220            33.8700000    0.025494863235
     91   S     221             5.0950000    0.190362765893
     91   S     222             1.1590000    0.852162022245

     92   S     223             0.3258000    1.000000000000

     93   S     224             0.1027000    1.000000000000

     94   P     225             1.4070000    1.000000000000

     95   P     226             0.3880000    1.000000000000

     96   D     227             1.0570000    1.000000000000

 H         

     97   S     228            33.8700000    0.025494863235
     97   S     229             5.0950000    0.190362765893
     97   S     230             1.1590000    0.852162022245

     98   S     231             0.3258000    1.000000000000

     99   S     232             0.1027000    1.000000000000

    100   P     233             1.4070000    1.000000000000

    101   P     234             0.3880000    1.000000000000

    102   D     235             1.0570000    1.000000000000

 H         

    103   S     236            33.8700000    0.025494863235
    103   S     237             5.0950000    0.190362765893
    103   S     238             1.1590000    0.852162022245

    104   S     239             0.3258000    1.000000000000

    105   S     240             0.1027000    1.000000000000

    106   P     241             1.4070000    1.000000000000

    107   P     242             0.3880000    1.000000000000

    108   D     243             1.0570000    1.000000000000

 H         

    109   S     244            33.8700000    0.025494863235
    109   S     245             5.0950000    0.190362765893
    109   S     246             1.1590000    0.852162022245

    110   S     247             0.3258000    1.000000000000

    111   S     248             0.1027000    1.000000000000

    112   P     249             1.4070000    1.000000000000

    113   P     250             0.3880000    1.000000000000

    114   D     251             1.0570000    1.000000000000

 TOTAL NUMBER OF BASIS SET SHELLS             =  114
 NUMBER OF CARTESIAN GAUSSIAN BASIS FUNCTIONS =  354
 NOTE: THIS RUN WILL RESTRICT THE MO VARIATION SPACE TO SPHERICAL HARMONICS.
 THE NUMBER OF ORBITALS KEPT IN THE VARIATIONAL SPACE WILL BE PRINTED LATER.
 NUMBER OF ELECTRONS                          =  104
 CHARGE OF MOLECULE                           =    3
 SPIN MULTIPLICITY                            =    1
 NUMBER OF OCCUPIED ORBITALS (ALPHA)          =   52
 NUMBER OF OCCUPIED ORBITALS (BETA )          =   52
 TOTAL NUMBER OF ATOMS                        =   15
 THE NUCLEAR REPULSION ENERGY IS      634.9932878040
 NOTE THIS RUN IS USING CORE POTENTIALS, AND THE NUMBER OF ELECTRONS,
 OCCUPIED ORBITALS, AND NUCLEAR REPULSION ENERGY WILL BE ADJUSTED BELOW
 AFTER REMOVAL OF THE CORE CHARGES.

     $CONTRL OPTIONS
     ---------------
 SCFTYP=RHF          RUNTYP=OPTIMIZE     EXETYP=RUN     
 MPLEVL=       2     CITYP =NONE         CCTYP =NONE         VBTYP =NONE    
 DFTTYP=NONE         TDDFT =NONE    
 MULT  =       1     ICHARG=       3     NZVAR =      39     COORD =UNIQUE  
 PP    =READ         RELWFN=NONE         LOCAL =NONE         NUMGRD=       F
 ISPHER=       1     NOSYM =       0     MAXIT =     200     UNITS =ANGS    
 PLTORB=       F     MOLPLT=       F     AIMPAC=       F     FRIEND=        
 NPRINT=       7     IREST =       0     GEOM  =INPUT   
 NORMF =       0     NORMP =       0     ITOL  =      20     ICUT  =      11
 INTTYP=BEST         GRDTYP=BEST         QMTTOL= 1.0E-06

     $SYSTEM OPTIONS
     ---------------
  REPLICATED MEMORY=   300000000 WORDS (ON EVERY NODE).
 DISTRIBUTED MEMDDI=         300 MILLION WORDS IN AGGREGATE,
 MEMDDI DISTRIBUTED OVER  16 PROCESSORS IS    18750000 WORDS/PROCESSOR.
 TOTAL MEMORY REQUESTED ON EACH PROCESSOR=   318750000 WORDS.
 TIMLIM=      525600.00 MINUTES, OR     365.0 DAYS.
 PARALL= T  BALTYP=  DLB     KDIAG=    0  COREFL= F
 MXSEQ2=     300 MXSEQ3=     150  mem10=         0

          --------------
          ECP POTENTIALS
          --------------

 PARAMETERS FOR "LA-ECP  " ON ATOM    1 WITH ZCORE  46 AND LMAX  4 ARE
 FOR L= 4      COEFF    N           ZETA
    1       -2.85665    1        1.42345
 FOR L= 0      COEFF    N           ZETA
    1        8.85347    0       22.29739
    2      -68.41778    2        1.64320
    3      110.12463    2        1.85122
 FOR L= 1      COEFF    N           ZETA
    1        2.98675    0        1.77635
    2      -35.51815    2        3.98941
    3       53.65423    2        2.47524
 FOR L= 2      COEFF    N           ZETA
    1        1.67298    0        1.52169
    2       18.46625    2        1.52182
 FOR L= 3      COEFF    N           ZETA
    1       -4.64430    1        2.67762
    2      -14.43101    1       10.06608

 THE ECP RUN REMOVES   46 CORE ELECTRONS, AND THE SAME NUMBER OF PROTONS.
 NUMBER OF ELECTRONS KEPT IN THE CALCULATION IS =   58
 NUMBER OF OCCUPIED ORBITALS (ALPHA) KEPT IS    =   29
 NUMBER OF OCCUPIED ORBITALS (BETA ) KEPT IS    =   29
 THE ADJUSTED NUCLEAR REPULSION ENERGY=      327.9419463322
          ECP ANGULAR INTS.........     0.02 SECONDS

          ----------------
          PROPERTIES INPUT
          ----------------

     MOMENTS            FIELD           POTENTIAL          DENSITY
 IEMOM =       1   IEFLD =       0   IEPOT =       0   IEDEN =       0
 WHERE =COMASS     WHERE =NUCLEI     WHERE =NUCLEI     WHERE =NUCLEI  
 OUTPUT=BOTH       OUTPUT=BOTH       OUTPUT=BOTH       OUTPUT=BOTH    
 IEMINT=       0   IEFINT=       0                     IEDINT=       0
                                                       MORB  =       0
          EXTRAPOLATION IN EFFECT
          SOSCF IN EFFECT
 ORBITAL PRINTING OPTION: NPREO=     1   354     2     1

     -------------------------------
     INTEGRAL TRANSFORMATION OPTIONS
     -------------------------------
     NWORD  =            0
     CUTOFF = 1.0E-09     MPTRAN =       0
     DIRTRF =       T     AOINTS =DUP     

          ----------------------
          INTEGRAL INPUT OPTIONS
          ----------------------
 NOPK  =       1 NORDER=       0 SCHWRZ=       T

          -----------------------
          MP2 CONTROL INFORMATION
          -----------------------
          NACORE =       13  NBCORE =       13
          LMOMP2 =        F  AOINTS = DUP     
          METHOD =        2  NWORD  =               0
          MP2PRP =        F  OSPT   = NONE    
          CUTOFF = 1.00E-09  CPHFBS = BASISAO 
          CODE   = DDI     

          NUMBER OF CORE -A-  ORBITALS =    13
          NUMBER OF CORE -B-  ORBITALS =    13
          NUMBER OF OCC. -A-  ORBITALS =    29
          NUMBER OF OCC. -B-  ORBITALS =    29
          NUMBER OF MOLECULAR ORBITALS =   354
          NUMBER OF   BASIS  FUNCTIONS =   354

 
 
 -----------------------------------------------
  STATISTICS ON AUTOMATIC COORDINATE GENERATION 
 -----------------------------------------------
  NUMBER OF USER SPECIFIED BONDS                              0
  NUMBER OF BONDS                                            14
  NUMBER OF ANGLES                                           25
  NUMBER OF TORSIONS                                         30
  NUMBER OF EXTRA COORD.                                      0
  NUMBER OF EXTRA COORD. FOR CONSTRAINTS                      0
  NUMBER OF CONSTRAINED COORD.                                1
 
  TOTAL NUMBER OF PRIMITIVES                                 69
 -----------------------------------------------

   --- ENCODED Z MATRIX ---
 COORD  TYPE   I   J   K   L   M   N
    1      1    1   3
    2      1    2   4
    3      1    2   3
    4      1    2   6
    5      1    2   5
    6      1    4   8
    7      1    4   7
    8      1    4   9
    9      1    5  12
   10      1    5  11
   11      1    5  10
   12      1    6  15
   13      1    6  14
   14      1    6  13
   15      2    1   3   2
   16      2    2   5  11
   17      2    2   4   8
   18      2    2   6  13
   19      2    2   6  14
   20      2    2   4   9
   21      2    2   5  12
   22      2    2   5  10
   23      2    2   4   7
   24      2    2   6  15
   25      2    3   2   4
   26      2    3   2   5
   27      2    3   2   6
   28      2    4   2   6
   29      2    4   2   5
   30      2    5   2   6
   31      2    7   4   9
   32      2    7   4   8
   33      2    8   4   9
   34      2   10   5  11
   35      2   10   5  12
   36      2   11   5  12
   37      2   13   6  14
   38      2   13   6  15
   39      2   14   6  15
   40      3    1   3   2   5
   41      3    1   3   2   4
   42      3    1   3   2   6
   43      3    3   2   4   8
   44      3    3   2   6  15
   45      3    3   2   6  14
   46      3    3   2   4   7
   47      3    3   2   5  10
   48      3    3   2   6  13
   49      3    3   2   5  11
   50      3    3   2   5  12
   51      3    3   2   4   9
   52      3    4   2   6  15
   53      3    4   2   6  14
   54      3    4   2   5  10
   55      3    4   2   6  13
   56      3    4   2   5  12
   57      3    4   2   5  11
   58      3    5   2   6  15
   59      3    5   2   6  14
   60      3    5   2   4   7
   61      3    5   2   6  13
   62      3    5   2   4   9
   63      3    5   2   4   8
   64      3    6   2   4   7
   65      3    6   2   5  10
   66      3    6   2   5  11
   67      3    6   2   5  12
   68      3    6   2   4   9
   69      3    6   2   4   8

          INDEP./SYM. INTERNAL COORDINATES
          --------------------------------
 CRD  1=   1.0000 (  1)
 CRD  2=   0.1288 ( 20)  0.1235 ( 22)  0.1255 ( 24)  0.1590 ( 25)  0.2134 ( 26)
          -0.3725 ( 27)  0.2819 ( 28) -0.4920 ( 29)  0.2101 ( 30)  0.1810 ( 40)
          -0.1992 ( 41) -0.1292 ( 46)  0.1235 ( 50) -0.1001 ( 51)  0.1241 ( 52)
           0.1636 ( 53) -0.1406 ( 58) -0.1012 ( 59) -0.1692 ( 61) -0.1230 ( 65)
          -0.1556 ( 66)  0.1015 ( 68)  0.1444 ( 69)
 CRD  3=  -0.2629 (  2)  0.2385 (  5)  0.4187 ( 15)  0.1939 ( 18) -0.1824 ( 19)
          -0.1432 ( 20)  0.1650 ( 22) -0.3284 ( 28)  0.3620 ( 30)  0.1472 ( 40)
           0.1096 ( 41) -0.2569 ( 42)  0.1627 ( 44) -0.1049 ( 63)  0.1235 ( 64)
           0.1278 ( 65)  0.1244 ( 67)  0.1273 ( 68)
 CRD  4=  -0.1682 (  2)  0.3942 (  4) -0.2260 (  5)  0.1405 ( 18)  0.1671 ( 19)
          -0.2192 ( 21) -0.2101 ( 23) -0.1109 ( 25) -0.1489 ( 26)  0.2597 ( 27)
          -0.1429 ( 29) -0.1252 ( 37)  0.1434 ( 40) -0.1585 ( 41)  0.2426 ( 43)
           0.1976 ( 46) -0.1507 ( 47) -0.2200 ( 49) -0.1848 ( 50)  0.1723 ( 51)
           0.1496 ( 54)  0.1156 ( 56) -0.1256 ( 60) -0.1509 ( 62)  0.1055 ( 65)
          -0.1181 ( 68)
 CRD  5=  -0.3965 (  2) -0.3965 (  4) -0.3965 (  5) -0.2736 ( 16) -0.2736 ( 17)
          -0.2736 ( 24)  0.1192 ( 32)  0.1193 ( 33)  0.1192 ( 34)  0.1191 ( 36)
           0.1191 ( 38)  0.1192 ( 39) -0.1211 ( 54)  0.1211 ( 55) -0.1211 ( 59)
           0.1211 ( 62) -0.1211 ( 64)  0.1211 ( 67)
 CRD  6=  -0.2466 (  2) -0.3433 (  3) -0.2465 (  4) -0.2459 (  5)  0.2310 ( 16)
           0.2314 ( 17) -0.2133 ( 18) -0.2126 ( 19) -0.2127 ( 20) -0.2132 ( 21)
          -0.2121 ( 22) -0.2138 ( 23)  0.2310 ( 24)  0.1638 ( 31)  0.1635 ( 35)
           0.1637 ( 37)  0.1289 ( 54) -0.1289 ( 55)  0.1288 ( 59) -0.1288 ( 62)
           0.1288 ( 64) -0.1287 ( 67)
 CRD  7=   0.3583 (  2) -0.3283 (  5) -0.1101 ( 13)  0.1093 ( 14)  0.1345 ( 15)
          -0.2108 ( 16)  0.2287 ( 17)  0.3821 ( 18) -0.3932 ( 19) -0.1152 ( 20)
          -0.2668 ( 21)  0.1700 ( 22)  0.2221 ( 23) -0.1928 ( 32)  0.1997 ( 36)
          -0.1279 ( 38)  0.1496 ( 39)
 CRD  8=   0.1393 (  2) -0.3179 (  4)  0.1790 (  5)  0.1968 ( 16)  0.1504 ( 17)
           0.3530 ( 20) -0.3437 ( 21)  0.3200 ( 22) -0.3691 ( 23) -0.3488 ( 24)
          -0.1896 ( 33) -0.1977 ( 34)  0.1543 ( 38)  0.1334 ( 39)
 CRD  9=  -0.1322 (  2)  0.1203 (  5) -0.3134 ( 15) -0.4056 ( 16)  0.4464 ( 17)
          -0.2716 ( 20)  0.2429 ( 21)  0.2473 ( 22) -0.2681 ( 23)  0.2190 ( 31)
          -0.1992 ( 35)  0.1001 ( 56)  0.1040 ( 67)
 CRD 10=  -0.3704 ( 18)  0.3708 ( 19) -0.3714 ( 20) -0.3697 ( 21)  0.3711 ( 22)
           0.3703 ( 23) -0.1315 ( 32)  0.1311 ( 33) -0.1307 ( 34)  0.1314 ( 36)
           0.1312 ( 38) -0.1311 ( 39)
 CRD 11=   0.1017 ( 11)  0.1413 ( 12) -0.2920 ( 16) -0.2173 ( 17) -0.2790 ( 18)
          -0.2422 ( 19)  0.3045 ( 20)  0.3247 ( 22)  0.5085 ( 24)  0.1179 ( 32)
          -0.1322 ( 35)  0.1257 ( 36)  0.2302 ( 37) -0.1079 ( 39)
 CRD 12=   0.7678 (  3)  0.1063 (  6)  0.1053 ( 10)  0.1058 ( 12)  0.2243 ( 16)
           0.2266 ( 17) -0.1101 ( 18) -0.1077 ( 19) -0.1087 ( 20) -0.1085 ( 21)
          -0.1088 ( 22) -0.1101 ( 23)  0.2253 ( 24)  0.1158 ( 31)  0.1151 ( 35)
           0.1154 ( 37)
 CRD 13=  -0.1777 (  2)  0.1611 (  5) -0.1275 (  6)  0.1163 ( 10) -0.4264 ( 15)
           0.2347 ( 16) -0.2574 ( 17)  0.2558 ( 18) -0.2614 ( 19) -0.1719 ( 21)
           0.1253 ( 22)  0.1361 ( 23) -0.2023 ( 25)  0.1839 ( 26)  0.1308 ( 28)
          -0.1445 ( 30)  0.1655 ( 33) -0.1690 ( 34) -0.1113 ( 38) -0.1175 ( 52)
          -0.1400 ( 53)  0.1055 ( 54) -0.1385 ( 55)  0.1202 ( 56)  0.1004 ( 57)
          -0.1108 ( 58) -0.1333 ( 59)  0.1053 ( 60) -0.1318 ( 61)
 CRD 14=  -0.2088 ( 43) -0.2088 ( 44) -0.1810 ( 45) -0.1811 ( 46) -0.1809 ( 47)
          -0.1811 ( 48) -0.2087 ( 49) -0.1809 ( 50) -0.1812 ( 51) -0.2088 ( 52)
          -0.1810 ( 53) -0.1810 ( 54) -0.1811 ( 55) -0.1809 ( 56) -0.2088 ( 57)
          -0.2088 ( 58) -0.1810 ( 59) -0.1811 ( 60) -0.1811 ( 61) -0.1811 ( 62)
          -0.2087 ( 63) -0.1811 ( 64) -0.1810 ( 65) -0.2087 ( 66) -0.1809 ( 67)
          -0.1811 ( 68) -0.2088 ( 69)
 CRD 15=   0.1128 (  7)  0.1393 (  9) -0.2006 ( 13) -0.1956 ( 14) -0.1033 ( 39)
          -0.2653 ( 43) -0.2450 ( 46)  0.2425 ( 47)  0.2408 ( 49)  0.2184 ( 50)
          -0.2630 ( 51)  0.1782 ( 54)  0.1541 ( 56)  0.1765 ( 57) -0.1768 ( 60)
          -0.1947 ( 62) -0.1970 ( 63) -0.1881 ( 64)  0.1933 ( 65)  0.1917 ( 66)
           0.1692 ( 67) -0.2060 ( 68) -0.2083 ( 69)
 CRD 16=   0.3966 (  6)  0.3480 (  7)  0.3105 (  8) -0.3153 (  9) -0.3422 ( 10)
          -0.2553 ( 11)  0.1063 ( 16) -0.1228 ( 17) -0.1764 ( 20)  0.1145 ( 21)
           0.1635 ( 22) -0.1449 ( 23)  0.1841 ( 31)  0.1222 ( 32)  0.1403 ( 33)
          -0.1275 ( 34) -0.1593 ( 35)
 CRD 17=   0.1685 (  6)  0.1799 (  8)  0.1587 (  9)  0.2625 ( 10)  0.2480 ( 11)
          -0.4306 ( 12) -0.3249 ( 13) -0.3381 ( 14)  0.1619 ( 18)  0.1718 ( 19)
          -0.1333 ( 21) -0.1012 ( 23)  0.1238 ( 24)  0.1189 ( 35) -0.1947 ( 37)
          -0.1298 ( 38) -0.1353 ( 39)  0.1046 ( 60)  0.1090 ( 62)  0.1028 ( 63)
           0.1012 ( 68)
 CRD 18=  -0.1007 (  2) -0.1008 (  4) -0.1007 (  5) -0.2692 (  6) -0.3024 (  7)
          -0.3023 (  8) -0.3026 (  9) -0.2691 ( 10) -0.3024 ( 11) -0.2695 ( 12)
          -0.3028 ( 13) -0.3027 ( 14)  0.1121 ( 16)  0.1121 ( 17)  0.1014 ( 18)
           0.1015 ( 19)  0.1013 ( 20)  0.1013 ( 21)  0.1014 ( 22)  0.1012 ( 23)
           0.1122 ( 24) -0.1067 ( 31) -0.1049 ( 32) -0.1050 ( 33) -0.1049 ( 34)
          -0.1069 ( 35) -0.1049 ( 36) -0.1070 ( 37) -0.1049 ( 38) -0.1050 ( 39)
 CRD 19=  -0.1519 (  2)  0.1377 (  5) -0.1680 (  7) -0.2774 (  8)  0.1280 (  9)
           0.2757 ( 11) -0.1082 ( 13)  0.1500 ( 14) -0.2073 ( 15) -0.1080 ( 43)
           0.2528 ( 44)  0.2372 ( 45) -0.1004 ( 46) -0.1370 ( 47)  0.2376 ( 48)
          -0.1450 ( 49) -0.1350 ( 50) -0.1026 ( 51)  0.2112 ( 52)  0.1956 ( 53)
           0.1960 ( 55) -0.1051 ( 57)  0.2146 ( 58)  0.1990 ( 59)  0.1994 ( 61)
          -0.1021 ( 64) -0.1312 ( 65) -0.1391 ( 66) -0.1292 ( 67) -0.1043 ( 68)
          -0.1097 ( 69)
 CRD 20=   0.1946 (  6) -0.2695 (  8)  0.2748 ( 10) -0.2900 ( 11) -0.4797 ( 12)
           0.2101 ( 13)  0.2495 ( 14)  0.1491 ( 32) -0.1396 ( 35)  0.1604 ( 36)
           0.2437 ( 37) -0.1149 ( 38) -0.1364 ( 39) -0.1333 ( 45)  0.1298 ( 48)
          -0.1395 ( 53)  0.1237 ( 55) -0.1265 ( 59)  0.1367 ( 61)
 CRD 21=  -0.4052 (  6)  0.2852 (  7) -0.3077 (  9)  0.3661 ( 10) -0.2718 ( 13)
           0.2311 ( 14)  0.2093 ( 31) -0.1593 ( 33)  0.1702 ( 34) -0.1890 ( 35)
           0.1425 ( 38) -0.1189 ( 39)  0.1217 ( 44) -0.1016 ( 46)  0.1114 ( 47)
           0.1191 ( 51)  0.1248 ( 52)  0.1061 ( 54)  0.1240 ( 58) -0.1071 ( 60)
           0.1137 ( 62)  0.1135 ( 65)  0.1224 ( 68)
 CRD 22=  -0.3846 (  6)  0.1856 (  7)  0.1661 (  8)  0.1605 (  9) -0.3812 ( 10)
           0.1877 ( 11) -0.3766 ( 12)  0.1813 ( 13)  0.1624 ( 14)  0.1955 ( 31)
          -0.1036 ( 33)  0.1937 ( 35) -0.1049 ( 36)  0.1914 ( 37) -0.1014 ( 38)
          -0.1015 ( 45) -0.1036 ( 46) -0.1022 ( 47)  0.1049 ( 48)  0.1067 ( 50)
           0.1072 ( 51) -0.1174 ( 54)  0.1202 ( 55) -0.1168 ( 59)  0.1224 ( 62)
          -0.1188 ( 64)  0.1220 ( 67)
 CRD 23=  -0.3134 (  7)  0.3284 (  8)  0.3223 (  9) -0.3126 ( 11) -0.3143 ( 13)
           0.3254 ( 14) -0.1765 ( 32)  0.1680 ( 33) -0.1731 ( 34)  0.1677 ( 36)
           0.1685 ( 38) -0.1747 ( 39)  0.1256 ( 43)  0.1255 ( 44)  0.1242 ( 49)
           0.1261 ( 52)  0.1237 ( 57)  0.1250 ( 58)  0.1260 ( 63)  0.1247 ( 66)
           0.1250 ( 69)
 CRD 24=  -0.4038 (  7)  0.3145 (  8) -0.3876 (  9)  0.1234 ( 10)  0.2620 ( 11)
          -0.2088 ( 12)  0.1444 ( 13) -0.1746 ( 32)  0.2282 ( 33)  0.2200 ( 34)
          -0.1440 ( 36)  0.1210 ( 37)  0.1157 ( 43)  0.1290 ( 47) -0.1049 ( 49)
          -0.1273 ( 51)  0.1428 ( 54) -0.1415 ( 62)  0.1016 ( 63)  0.1367 ( 65)
          -0.1371 ( 68)  0.1059 ( 69)
 CRD 25=   0.2489 (  6) -0.2336 (  8) -0.1200 (  9) -0.2227 ( 10)  0.2804 ( 11)
          -0.3364 ( 13)  0.3559 ( 14) -0.1510 ( 31)  0.1581 ( 32)  0.1352 ( 35)
          -0.1856 ( 36)  0.2074 ( 38) -0.2218 ( 39) -0.1383 ( 45)  0.1318 ( 46)
          -0.1224 ( 48)  0.1446 ( 50) -0.1540 ( 53) -0.1380 ( 55)  0.1462 ( 56)
          -0.1557 ( 59)  0.1299 ( 60) -0.1397 ( 61)  0.1475 ( 64)  0.1622 ( 67)
 CRD 26=  -0.1073 (  2)  0.2513 (  4) -0.1441 (  5) -0.2387 (  7) -0.2618 (  9)
           0.1285 ( 12)  0.2566 ( 13)  0.2316 ( 14)  0.1639 ( 18)  0.1863 ( 19)
          -0.2095 ( 21) -0.1952 ( 23)  0.1069 ( 24) -0.1253 ( 27) -0.1071 ( 28)
           0.1869 ( 29)  0.1585 ( 32)  0.1282 ( 35)  0.1655 ( 36) -0.2240 ( 37)
          -0.1070 ( 38) -0.1271 ( 39) -0.1344 ( 40)  0.1489 ( 41) -0.1523 ( 43)
           0.1384 ( 49) -0.1390 ( 54) -0.1178 ( 56)  0.1235 ( 60)  0.1393 ( 62)
 CRD 27=   0.4667 (  3) -0.2684 (  6) -0.2679 ( 10) -0.2681 ( 12) -0.1524 ( 16)
          -0.1528 ( 17) -0.1526 ( 24)  0.1599 ( 32)  0.1605 ( 33)  0.1599 ( 34)
           0.1596 ( 36)  0.1597 ( 38)  0.1603 ( 39) -0.1010 ( 52)  0.1758 ( 54)
          -0.1756 ( 55)  0.1008 ( 57)  0.1008 ( 58)  0.1759 ( 59) -0.1758 ( 62)
          -0.1007 ( 63)  0.1756 ( 64) -0.1011 ( 66) -0.1758 ( 67)  0.1010 ( 69)
 CRD 28=   0.1304 (  6)  0.1622 (  7)  0.2593 (  8) -0.1262 (  9) -0.1188 ( 10)
          -0.2564 ( 11) -0.1333 ( 14) -0.2188 ( 15) -0.1449 ( 16)  0.1593 ( 17)
           0.2155 ( 20) -0.1370 ( 21) -0.2070 ( 22)  0.1633 ( 23) -0.1669 ( 25)
           0.1512 ( 26) -0.2274 ( 31) -0.1185 ( 32) -0.1941 ( 33)  0.1927 ( 34)
           0.2063 ( 35)  0.1033 ( 38) -0.1230 ( 42) -0.1099 ( 43)  0.2576 ( 44)
           0.1840 ( 45) -0.1153 ( 47)  0.1855 ( 48) -0.1476 ( 49)
 CRD 29=   0.3201 (  2) -0.1840 (  3)  0.3202 (  4)  0.3197 (  5) -0.1796 (  7)
          -0.1793 (  8) -0.1796 (  9) -0.1792 ( 11) -0.1794 ( 13) -0.1796 ( 14)
          -0.1222 ( 16) -0.1223 ( 17) -0.1570 ( 18) -0.1569 ( 19) -0.1569 ( 20)
          -0.1568 ( 21) -0.1568 ( 22) -0.1569 ( 23) -0.1223 ( 24)  0.2242 ( 31)
           0.1057 ( 32)  0.1055 ( 33)  0.1052 ( 34)  0.2241 ( 35)  0.1055 ( 36)
           0.2242 ( 37)  0.1056 ( 38)  0.1055 ( 39)
 CRD 30=  -0.2347 (  2)  0.5498 (  4) -0.3154 (  5)  0.1599 (  8)  0.1110 ( 10)
           0.1729 ( 11) -0.1939 ( 12) -0.1405 ( 13) -0.1582 ( 14)  0.1072 ( 16)
          -0.1842 ( 18) -0.1806 ( 19)  0.1223 ( 22) -0.1869 ( 24) -0.1570 ( 33)
          -0.1788 ( 34)  0.1656 ( 37)  0.2026 ( 38)  0.1890 ( 39)
 CRD 31=  -0.1876 (  3) -0.1767 (  6) -0.1765 ( 10) -0.1766 ( 12)  0.1279 ( 16)
           0.1278 ( 17)  0.1278 ( 24)  0.1001 ( 26)  0.1000 ( 27) -0.1360 ( 31)
          -0.1359 ( 35) -0.1359 ( 37)  0.1286 ( 45)  0.1280 ( 46)  0.1283 ( 47)
          -0.1279 ( 48) -0.1282 ( 50) -0.1285 ( 51)  0.1325 ( 52)  0.2612 ( 53)
          -0.2610 ( 56) -0.1332 ( 57) -0.1332 ( 58)  0.2609 ( 60) -0.2609 ( 61)
           0.1332 ( 63)  0.2613 ( 65)  0.1326 ( 66) -0.2612 ( 68) -0.1324 ( 69)
 CRD 32=   0.4612 (  2) -0.4184 (  5) -0.1575 (  6) -0.1534 (  7)  0.1743 (  9)
           0.1429 ( 10)  0.1951 ( 13) -0.1812 ( 14) -0.1266 ( 15)  0.1038 ( 16)
          -0.1146 ( 17) -0.1136 ( 20)  0.1086 ( 21)  0.1020 ( 22) -0.1184 ( 23)
          -0.1017 ( 25)  0.1998 ( 32) -0.2080 ( 36)  0.1306 ( 38) -0.1563 ( 39)
          -0.1031 ( 43)  0.2417 ( 44) -0.1385 ( 49)  0.1043 ( 52)  0.1024 ( 58)
 CRD 33=   0.2306 (  7) -0.2309 (  8) -0.2311 (  9)  0.2314 ( 11)  0.2313 ( 13)
          -0.2308 ( 14) -0.1771 ( 32)  0.1769 ( 33) -0.1772 ( 34)  0.1775 ( 36)
           0.1774 ( 38) -0.1771 ( 39)  0.1514 ( 43)  0.1515 ( 44) -0.1131 ( 45)
          -0.1134 ( 46) -0.1132 ( 47) -0.1136 ( 48)  0.1517 ( 49) -0.1137 ( 50)
          -0.1130 ( 51)  0.1516 ( 52) -0.1130 ( 53) -0.1131 ( 54) -0.1135 ( 55)
          -0.1136 ( 56)  0.1517 ( 57)  0.1515 ( 58) -0.1131 ( 59) -0.1135 ( 60)
          -0.1136 ( 61) -0.1131 ( 62)  0.1513 ( 63) -0.1135 ( 64) -0.1131 ( 65)
           0.1517 ( 66) -0.1136 ( 67) -0.1131 ( 68)  0.1513 ( 69)
 CRD 34=   0.1313 (  6)  0.1105 (  7) -0.2266 (  8)  0.1592 ( 10) -0.2265 ( 11)
          -0.2898 ( 12)  0.1157 ( 13)  0.1403 ( 14)  0.1059 ( 20)  0.1056 ( 22)
           0.1363 ( 29) -0.1837 ( 32)  0.1145 ( 35) -0.1861 ( 36) -0.2084 ( 37)
           0.1126 ( 38)  0.1313 ( 39)  0.1026 ( 43)  0.1816 ( 45) -0.1752 ( 46)
          -0.1683 ( 48)  0.1855 ( 50)  0.1448 ( 53) -0.2051 ( 55)  0.1673 ( 56)
          -0.1129 ( 57)  0.2182 ( 59) -0.1608 ( 60) -0.1317 ( 61)  0.1169 ( 63)
          -0.1935 ( 64)  0.2078 ( 67)
 CRD 35=  -0.2876 (  6)  0.1940 (  7) -0.1979 (  9)  0.2682 ( 10) -0.1527 ( 13)
           0.1349 ( 14)  0.1002 ( 17) -0.1001 ( 28)  0.1067 ( 30) -0.2081 ( 31)
           0.1707 ( 33) -0.1723 ( 34)  0.1939 ( 35) -0.1181 ( 38)  0.1015 ( 39)
           0.1306 ( 46) -0.2150 ( 47)  0.1079 ( 48)  0.1097 ( 50) -0.2175 ( 51)
          -0.2479 ( 54)  0.1202 ( 55)  0.1168 ( 61) -0.2508 ( 62)  0.1548 ( 64)
          -0.1941 ( 65)  0.1305 ( 67) -0.1933 ( 68)
 CRD 36=   0.1533 (  4)  0.2432 (  7) -0.1490 (  8)  0.2409 (  9) -0.1090 ( 10)
          -0.1149 ( 11)  0.1912 ( 12) -0.1281 ( 13)  0.1024 ( 20) -0.1169 ( 21)
          -0.1237 ( 23) -0.1081 ( 24)  0.1279 ( 29) -0.1202 ( 32)  0.1757 ( 33)
           0.1714 ( 34)  0.1723 ( 37)  0.1011 ( 41)  0.1187 ( 43) -0.1184 ( 45)
           0.1837 ( 47)  0.1401 ( 48) -0.1074 ( 49) -0.1762 ( 51) -0.1650 ( 53)
          -0.1041 ( 56) -0.2478 ( 57)  0.1624 ( 61)  0.2663 ( 63) -0.2085 ( 66)
           0.2369 ( 69)
 CRD 37=  -0.2304 (  2)  0.2093 (  5) -0.1115 (  6)  0.1655 (  8)  0.1013 ( 10)
          -0.1870 ( 11)  0.1928 ( 13) -0.2072 ( 14)  0.1436 ( 18) -0.1423 ( 19)
           0.1190 ( 25) -0.1078 ( 26)  0.1370 ( 28) -0.1511 ( 30) -0.1218 ( 31)
           0.1106 ( 35) -0.1125 ( 36)  0.1483 ( 38) -0.1532 ( 39)  0.1514 ( 42)
          -0.2086 ( 45)  0.1706 ( 46) -0.1937 ( 48)  0.1920 ( 50)  0.2690 ( 52)
           0.1061 ( 56) -0.1190 ( 57)  0.2762 ( 58)  0.1197 ( 60) -0.1212 ( 65)
          -0.1926 ( 66) -0.1311 ( 68) -0.1573 ( 69)
 CRD 38=  -0.6405 ( 15)  0.3096 ( 25) -0.2808 ( 26) -0.2617 ( 28)  0.2887 ( 30)
          -0.1116 ( 42) -0.1251 ( 44) -0.1515 ( 45)  0.1137 ( 47) -0.1567 ( 48)
          -0.1265 ( 56) -0.1179 ( 57) -0.1285 ( 60) -0.1131 ( 63)
 CRD 39=   0.5775 ( 40)  0.5772 ( 41)  0.5774 ( 42)

 THE DETERMINANT OF THE G MATRIX IS 10**(   -13)


                     --------------------
                     INTERNAL COORDINATES
                     --------------------

                 - - ATOMS - -         COORDINATE      COORDINATE
 NO.   TYPE    I  J  K  L  M  N        (BOHR,RAD)       (ANG,DEG)
 ----------------------------------------------------------------
   1 STRETCH   1  3                     4.3463698       2.3000000
   2 STRETCH   2  4                     3.3538460       1.7747790
   3 STRETCH   2  3                     3.3196218       1.7566683
   4 STRETCH   2  6                     3.3539733       1.7748464
   5 STRETCH   2  5                     3.3538992       1.7748072
   6 STRETCH   4  8                     2.0679643       1.0943196
   7 STRETCH   4  7                     2.0574453       1.0887532
   8 STRETCH   4  9                     2.0572881       1.0886701
   9 STRETCH   5 12                     2.0573449       1.0887001
  10 STRETCH   5 11                     2.0679960       1.0943364
  11 STRETCH   5 10                     2.0573635       1.0887099
  12 STRETCH   6 15                     2.0678311       1.0942492
  13 STRETCH   6 14                     2.0574193       1.0887395
  14 STRETCH   6 13                     2.0574658       1.0887641
  15 BEND      1  3  2                  3.1407285     179.9504864
  16 BEND      2  5 11                  1.8647629     106.8430437
  17 BEND      2  4  8                  1.8654887     106.8846315
  18 BEND      2  6 13                  1.9363405     110.9441357
  19 BEND      2  6 14                  1.9367673     110.9685932
  20 BEND      2  4  9                  1.9363663     110.9456164
  21 BEND      2  5 12                  1.9367468     110.9674169
  22 BEND      2  5 10                  1.9366586     110.9623649
  23 BEND      2  4  7                  1.9362777     110.9405404
  24 BEND      2  6 15                  1.8648449     106.8477426
  25 BEND      3  2  4                  1.8625915     106.7186329
  26 BEND      3  2  5                  1.8629232     106.7376352
  27 BEND      3  2  6                  1.8629692     106.7402727
  28 BEND      4  2  6                  1.9560829     112.0752918
  29 BEND      4  2  5                  1.9558860     112.0640120
  30 BEND      5  2  6                  1.9557846     112.0582053
  31 BEND      7  4  9                  1.9373963     111.0046285
  32 BEND      7  4  8                  1.8926647     108.4417006
  33 BEND      8  4  9                  1.8931684     108.4705596
  34 BEND     10  5 11                  1.8926604     108.4414529
  35 BEND     10  5 12                  1.9375674     111.0144323
  36 BEND     11  5 12                  1.8929064     108.4555452
  37 BEND     13  6 14                  1.9376724     111.0204481
  38 BEND     13  6 15                  1.8928290     108.4511126
  39 BEND     14  6 15                  1.8928573     108.4527372
  40 TORSION   1  3  2  5               0.6078242      34.8257610
  41 TORSION   1  3  2  4               2.7021086     154.8194186
  42 TORSION   1  3  2  6              -1.4865386     -85.1723900
  43 TORSION   3  2  4  8              -3.1397635    -179.8951976
  44 TORSION   3  2  6 15               3.1406228     179.9444323
  45 TORSION   3  2  6 14              -1.0822197     -62.0066193
  46 TORSION   3  2  4  7              -1.0795371     -61.8529181
  47 TORSION   3  2  5 10              -1.0836507     -62.0886112
  48 TORSION   3  2  6 13               1.0805476      61.9108182
  49 TORSION   3  2  5 11               3.1395369     179.8822159
  50 TORSION   3  2  5 12               1.0791952      61.8333328
  51 TORSION   3  2  4  9               1.0825410      62.0250294
  52 TORSION   4  2  6 15              -1.1093065     -63.5585802
  53 TORSION   4  2  6 14               0.9510363      54.4903681
  54 TORSION   4  2  5 10              -3.1167730    -178.5779384
  55 TORSION   4  2  6 13               3.1138036     178.4078057
  56 TORSION   4  2  5 12              -0.9539271     -54.6559945
  57 TORSION   4  2  5 11               1.1064146      63.3928887
  58 TORSION   5  2  6 15               1.1071274      63.4337280
  59 TORSION   5  2  6 14              -3.1157151    -178.5173236
  60 TORSION   5  2  4  7               0.9537852      54.6478664
  61 TORSION   5  2  6 13              -0.9529478     -54.5998861
  62 TORSION   5  2  4  9               3.1158633     178.5258139
  63 TORSION   5  2  4  8              -1.1064412     -63.3944130
  64 TORSION   6  2  4  7              -3.1130207    -178.3629494
  65 TORSION   6  2  5 10               0.9498725      54.4236833
  66 TORSION   6  2  5 11              -1.1101252     -63.6054896
  67 TORSION   6  2  5 12               3.1127184     178.3456273
  68 TORSION   6  2  4  9              -0.9509427     -54.4850018
  69 TORSION   6  2  4  8               1.1099381      63.5947712

     ------------------------------------------
     THE POINT GROUP IS C1 , NAXIS= 0, ORDER= 1
     ------------------------------------------

 -- VARIATIONAL SPACE WILL BE RESTRICTED TO PURE SPHERICAL HARMONICS ONLY --
 AFTER EXCLUDING CONTAMINANT COMBINATIONS FROM THE CARTESIAN GAUSSIAN BASIS
 SET, THE NUMBER OF SPHERICAL HARMONICS KEPT IN THE VARIATION SPACE IS  316

     DIMENSIONS OF THE SYMMETRY SUBSPACES ARE
 A   =  316

 ..... DONE SETTING UP THE RUN .....
 CPU     0: STEP CPU TIME=     0.08 TOTAL CPU TIME=        0.1 (    0.0 MIN)
 TOTAL WALL CLOCK TIME=        0.2 SECONDS, CPU UTILIZATION IS  50.00%


          -----------------------------
          STATIONARY POINT LOCATION RUN
          -----------------------------


           ** GEOMETRY CONSTRAINTS ARE BEING APPLIED. **

          TRANSFORMING DISPLACEMENT FROM INTERNALS TO CARTESIANS
          THE ROOT MEAN SQUARE ERROR IN ITERATION   1 IS   0.00000000
 WARNING! THE RADIUS IN CARTESIANS IS    0.00000
 OBTAINING INITIAL HESSIAN, HESS=GUESS   
 DIAGONAL GUESS HESSIAN IN INTERNAL COORDS IS
     1  0.3969     2  0.4333     3  0.3624     4  0.4333     5  0.4333
     6  0.3435     7  0.3472     8  0.3473     9  0.3472    10  0.3435
    11  0.3472    12  0.3435    13  0.3472    14  0.3472    15  0.2934
    16  0.2409    17  0.2409    18  0.2412    19  0.2412    20  0.2412
    21  0.2412    22  0.2412    23  0.2412    24  0.2409    25  0.2785
    26  0.2785    27  0.2785    28  0.2914    29  0.2914    30  0.2914
    31  0.2035    32  0.2032    33  0.2033    34  0.2032    35  0.2035
    36  0.2032    37  0.2035    38  0.2032    39  0.2033    40  0.2500
    41  0.2500    42  0.2500    43  0.2500    44  0.2500    45  0.2500
    46  0.2500    47  0.2500    48  0.2500    49  0.2500    50  0.2500
    51  0.2500    52  0.2500    53  0.2500    54  0.2500    55  0.2500
    56  0.2500    57  0.2500    58  0.2500    59  0.2500    60  0.2500
    61  0.2500    62  0.2500    63  0.2500    64  0.2500    65  0.2500
    66  0.2500    67  0.2500    68  0.2500    69  0.2500
 TRANSFORMING HESSIAN TO SYMMETRY COORDINATES

          PARAMETERS CONTROLLING GEOMETRY SEARCH ARE
          METHOD =QA                  UPHESS =BFGS    
          NNEG   =         0          NFRZ   =         0
          NSTEP  =        50          IFOLOW =         1
          HESS   =GUESS               RESTAR =         F
          IHREP  =         0          HSSEND =         F
          NPRT   =         0          NPUN   =         0
          OPTTOL = 1.000E-04          RMIN   = 1.500E-03
          RMAX   = 1.000E-01          RLIM   = 7.000E-02
          DXMAX  = 3.000E-01          PURIFY =         F
          MOVIE  =         F          TRUPD  =         T
          TRMAX  = 5.000E-01          TRMIN  = 5.000E-02
          ITBMAT =         5          STPT   =         F
          STSTEP = 1.000E-02          PROJCT=          T

 BEGINNING GEOMETRY SEARCH POINT NSERCH=   0 ...

 COORDINATES OF ALL ATOMS ARE (ANGS)
   ATOM   CHARGE       X              Y              Z
 ------------------------------------------------------------
 LA         57.0  -0.1739353441   1.1341682690  -4.0490164368
 P          15.0  -0.0331705342   0.2469981808  -0.0930501181
 O           8.0  -0.0949830572   0.6312391007  -1.8060655261
 C           6.0  -1.4826624303   0.9594539446   0.6426267573
 C           6.0   1.4593564216   0.9697428141   0.5393610695
 C           6.0  -0.0222405548  -1.5232818671   0.0337126351
 H           1.0  -1.4844110971   2.0422870156   0.5292553593
 H           1.0  -1.4459298340   0.7232511670   1.7105192812
 H           1.0  -2.3870570191   0.5217488106   0.2234762423
 H           1.0   2.3354249102   0.5377757119   0.0585307877
 H           1.0   1.4985422209   0.7331809430   1.6071040934
 H           1.0   1.4461192804   2.0524964889   0.4265020668
 H           1.0   0.8599499449  -1.9424732123  -0.4473546704
 H           1.0  -0.9336220565  -1.9493283551  -0.3824865696
 H           1.0   0.0172696339  -1.7646286916   1.1002827890


                     --------------------
                     INTERNAL COORDINATES
                     --------------------

                 - - ATOMS - -         COORDINATE      COORDINATE
 NO.   TYPE    I  J  K  L  M  N        (BOHR,RAD)       (ANG,DEG)
 ----------------------------------------------------------------
   1 STRETCH   1  3                     4.3463698       2.3000000
   2 STRETCH   2  4                     3.3538460       1.7747790
   3 STRETCH   2  3                     3.3196218       1.7566683
   4 STRETCH   2  6                     3.3539733       1.7748464
   5 STRETCH   2  5                     3.3538992       1.7748072
   6 STRETCH   4  8                     2.0679643       1.0943196
   7 STRETCH   4  7                     2.0574453       1.0887532
   8 STRETCH   4  9                     2.0572881       1.0886701
   9 STRETCH   5 12                     2.0573449       1.0887001
  10 STRETCH   5 11                     2.0679960       1.0943364
  11 STRETCH   5 10                     2.0573635       1.0887099
  12 STRETCH   6 15                     2.0678311       1.0942492
  13 STRETCH   6 14                     2.0574193       1.0887395
  14 STRETCH   6 13                     2.0574658       1.0887641
  15 BEND      1  3  2                  3.1407285     179.9504864
  16 BEND      2  5 11                  1.8647629     106.8430437
  17 BEND      2  4  8                  1.8654887     106.8846315
  18 BEND      2  6 13                  1.9363405     110.9441357
  19 BEND      2  6 14                  1.9367673     110.9685932
  20 BEND      2  4  9                  1.9363663     110.9456164
  21 BEND      2  5 12                  1.9367468     110.9674169
  22 BEND      2  5 10                  1.9366586     110.9623649
  23 BEND      2  4  7                  1.9362777     110.9405404
  24 BEND      2  6 15                  1.8648449     106.8477426
  25 BEND      3  2  4                  1.8625915     106.7186329
  26 BEND      3  2  5                  1.8629232     106.7376352
  27 BEND      3  2  6                  1.8629692     106.7402727
  28 BEND      4  2  6                  1.9560829     112.0752918
  29 BEND      4  2  5                  1.9558860     112.0640120
  30 BEND      5  2  6                  1.9557846     112.0582053
  31 BEND      7  4  9                  1.9373963     111.0046285
  32 BEND      7  4  8                  1.8926647     108.4417006
  33 BEND      8  4  9                  1.8931684     108.4705596
  34 BEND     10  5 11                  1.8926604     108.4414529
  35 BEND     10  5 12                  1.9375674     111.0144323
  36 BEND     11  5 12                  1.8929064     108.4555452
  37 BEND     13  6 14                  1.9376724     111.0204481
  38 BEND     13  6 15                  1.8928290     108.4511126
  39 BEND     14  6 15                  1.8928573     108.4527372
  40 TORSION   1  3  2  5               0.6078242      34.8257610
  41 TORSION   1  3  2  4               2.7021086     154.8194186
  42 TORSION   1  3  2  6              -1.4865386     -85.1723900
  43 TORSION   3  2  4  8              -3.1397635    -179.8951976
  44 TORSION   3  2  6 15               3.1406228     179.9444323
  45 TORSION   3  2  6 14              -1.0822197     -62.0066193
  46 TORSION   3  2  4  7              -1.0795371     -61.8529181
  47 TORSION   3  2  5 10              -1.0836507     -62.0886112
  48 TORSION   3  2  6 13               1.0805476      61.9108182
  49 TORSION   3  2  5 11               3.1395369     179.8822159
  50 TORSION   3  2  5 12               1.0791952      61.8333328
  51 TORSION   3  2  4  9               1.0825410      62.0250294
  52 TORSION   4  2  6 15              -1.1093065     -63.5585802
  53 TORSION   4  2  6 14               0.9510363      54.4903681
  54 TORSION   4  2  5 10              -3.1167730    -178.5779384
  55 TORSION   4  2  6 13               3.1138036     178.4078057
  56 TORSION   4  2  5 12              -0.9539271     -54.6559945
  57 TORSION   4  2  5 11               1.1064146      63.3928887
  58 TORSION   5  2  6 15               1.1071274      63.4337280
  59 TORSION   5  2  6 14              -3.1157151    -178.5173236
  60 TORSION   5  2  4  7               0.9537852      54.6478664
  61 TORSION   5  2  6 13              -0.9529478     -54.5998861
  62 TORSION   5  2  4  9               3.1158633     178.5258139
  63 TORSION   5  2  4  8              -1.1064412     -63.3944130
  64 TORSION   6  2  4  7              -3.1130207    -178.3629494
  65 TORSION   6  2  5 10               0.9498725      54.4236833
  66 TORSION   6  2  5 11              -1.1101252     -63.6054896
  67 TORSION   6  2  5 12               3.1127184     178.3456273
  68 TORSION   6  2  4  9              -0.9509427     -54.4850018
  69 TORSION   6  2  4  8               1.1099381      63.5947712

          ********************
          1 ELECTRON INTEGRALS
          ********************
 TIME TO DO ORDINARY INTEGRALS=      0.02
 TIME TO DO      ECP INTEGRALS=      0.06
 ...... END OF ONE-ELECTRON INTEGRALS ......
 CPU     0: STEP CPU TIME=     0.09 TOTAL CPU TIME=        0.2 (    0.0 MIN)
 TOTAL WALL CLOCK TIME=        0.3 SECONDS, CPU UTILIZATION IS  58.62%

          -------------
          GUESS OPTIONS
          -------------
          GUESS =HUCKEL            NORB  =       0          NORDER=       0
          MIX   =       F          PRTMO =       F          PUNMO =       F
          TOLZ  = 1.0E-08          TOLE  = 1.0E-05
          SYMDEN=       F          PURIFY=       F

 INITIAL GUESS ORBITALS GENERATED BY HUCKEL   ROUTINE.
 HUCKEL GUESS REQUIRES    916545 WORDS.

 STATISTICS FOR GENERATION OF SYMMETRY ORBITAL -Q- MATRIX
 NUMBER OF CARTESIAN ATOMIC ORBITALS=        354
 NUMBER OF SPHERICAL CONTAMINANTS DROPPED=    38
 NUMBER OF LINEARLY DEPENDENT MOS DROPPED=     0
 TOTAL NUMBER OF MOS IN VARIATION SPACE=     316

 SYMMETRIES FOR INITIAL GUESS ORBITALS FOLLOW.   BOTH SET(S).
    29 ORBITALS ARE OCCUPIED (   13 CORE ORBITALS).
    14=A       15=A       16=A       17=A       18=A       19=A       20=A   
    21=A       22=A       23=A       24=A       25=A       26=A       27=A   
    28=A       29=A       30=A       31=A       32=A       33=A       34=A   
    35=A       36=A       37=A       38=A       39=A   
 ...... END OF INITIAL ORBITAL SELECTION ......
 CPU     0: STEP CPU TIME=     0.18 TOTAL CPU TIME=        0.4 (    0.0 MIN)
 TOTAL WALL CLOCK TIME=        0.8 SECONDS, CPU UTILIZATION IS  45.45%

                    ----------------------
                    AO INTEGRAL TECHNOLOGY
                    ----------------------
     S,P,L SHELL ROTATED AXIS INTEGRALS, REPROGRAMMED BY
        KAZUYA ISHIMURA (IMS) AND JOSE SIERRA (SYNSTAR).
     S,P,D,L SHELL ROTATED AXIS INTEGRALS PROGRAMMED BY
        KAZUYA ISHIMURA (INSTITUTE FOR MOLECULAR SCIENCE).
     S,P,D,F,G SHELL TO TOTAL QUARTET ANGULAR MOMENTUM SUM 5,
        ERIC PROGRAM BY GRAHAM FLETCHER (ELORET AND NASA ADVANCED
        SUPERCOMPUTING DIVISION, AMES RESEARCH CENTER).
     S,P,D,F,G,L SHELL GENERAL RYS QUADRATURE PROGRAMMED BY
        MICHEL DUPUIS (PACIFIC NORTHWEST NATIONAL LABORATORY).

          --------------------
          2 ELECTRON INTEGRALS
          --------------------

 DIRECT SCF METHOD SKIPS INTEGRAL STORAGE ON DISK.
 DIRECT TRANSFORMATION SKIPS AO INTEGRAL STORAGE ON DISK.
  ...... END OF TWO-ELECTRON INTEGRALS .....
 CPU     0: STEP CPU TIME=     0.01 TOTAL CPU TIME=        0.4 (    0.0 MIN)
 TOTAL WALL CLOCK TIME=        0.8 SECONDS, CPU UTILIZATION IS  46.15%

          --------------------------
                 RHF SCF CALCULATION
          --------------------------

     NUCLEAR ENERGY =       327.9419463322
     MAXIT =  200     NPUNCH=    2
     EXTRAP=T  DAMP=F  SHIFT=F  RSTRCT=F  DIIS=F  DEM=F  SOSCF=T
     DENSITY MATRIX CONV=  2.00E-06
     SOSCF WILL OPTIMIZE    8323 ORBITAL ROTATIONS, SOGTOL=   0.250
     MEMORY REQUIRED FOR RHF ITERS=    982670 WORDS.

 DIRECT SCF CALCULATION, SCHWRZ=T   FDIFF=F,  DIRTHR=  0.00E+00 NITDIR=10
 SCHWARZ INEQUALITY OVERHEAD:     62118 INTEGRALS, T=        0.01

                                                                                   NONZERO     BLOCKS
 ITER EX DEM     TOTAL ENERGY        E CHANGE  DENSITY CHANGE     ORB. GRAD      INTEGRALS    SKIPPED
   1  0  0     -563.4563632192  -563.4563632192   0.368577815   0.000000000     1440156436    4315827
          ---------------START SECOND ORDER SCF---------------
   2  1  0     -564.5584367651    -1.1020735459   0.125657115   0.063063064     1426319811    4636741
   3  2  0     -564.6501052479    -0.0916684828   0.052213051   0.046459750     1425151071    4646068
   4  3  0     -564.7032963543    -0.0531911064   0.019446740   0.007786675     1425692197    4635641
   5  4  0     -564.7051307411    -0.0018343868   0.005929028   0.005752478     1426271281    4627820
   6  5  0     -564.7057108816    -0.0005801405   0.002511820   0.000913131     1426309639    4626395
   7  6  0     -564.7057479529    -0.0000370713   0.000942069   0.000286679     1426333230    4625815
   8  7  0     -564.7057519145    -0.0000039615   0.000228108   0.000075893     1426350156    4625716
   9  8  0     -564.7057522671    -0.0000003526   0.000078903   0.000031392     1426353333    4625726
  10  9  0     -564.7057523062    -0.0000000391   0.000031038   0.000016063     1426353112    4625742
  11 10  0     -564.7057523121    -0.0000000059   0.000012610   0.000005079     1426352644    4625746
  12 11  0     -564.7057523130    -0.0000000009   0.000004457   0.000001552     1426353363    4625740
  13 12  0     -564.7057523131    -0.0000000002   0.000001806   0.000000621     1426353328    4625737
  14 13  0     -564.7057523131    -0.0000000000   0.000000800   0.000000219     1426353312    4625736

          -----------------
          DENSITY CONVERGED
          -----------------
     TIME TO FORM FOCK OPERATORS=      90.4 SECONDS (       6.5 SEC/ITER)
     FOCK TIME ON FIRST ITERATION=       6.5, LAST ITERATION=       6.5
     TIME TO SOLVE SCF EQUATIONS=       0.4 SECONDS (       0.0 SEC/ITER)

 FINAL RHF ENERGY IS     -564.7057523131 AFTER  14 ITERATIONS

          ------------
          EIGENVECTORS
          ------------

                      1          2          3          4          5
                  -80.4558   -21.0103   -11.6178   -11.6178   -11.6177
                     A          A          A          A          A   
    1  LA 1  S    0.000004  -0.000013   0.000000   0.000005   0.000006
    2  LA 1  X    0.000000  -0.000000  -0.000006  -0.000006   0.000006
    3  LA 1  Y   -0.000001   0.000000  -0.000009   0.000004  -0.000005
    4  LA 1  Z    0.000006  -0.000002  -0.000001   0.000007   0.000006
    5  LA 1 XX    0.000003  -0.000007   0.000005  -0.000004   0.000000
    6  LA 1 YY    0.000003  -0.000006  -0.000007   0.000003  -0.000004
    7  LA 1 ZZ   -0.000006   0.000012   0.000002   0.000001   0.000004
    8  LA 1 XY    0.000000  -0.000000   0.000003   0.000003  -0.000003
    9  LA 1 XZ   -0.000000   0.000001   0.000004   0.000005  -0.000004
   10  LA 1 YZ    0.000002  -0.000005   0.000003  -0.000003   0.000000
   11  LA 1 XX    0.000001   0.000057  -0.000009   0.000029   0.000025
   12  LA 1 YY    0.000001   0.000049   0.000014   0.000013   0.000029
   13  LA 1 ZZ   -0.000003  -0.000106  -0.000005  -0.000042  -0.000054
   14  LA 1 XY    0.000000   0.000001  -0.000008  -0.000008   0.000008
   15  LA 1 XZ   -0.000000  -0.000007  -0.000005  -0.000009   0.000002
   16  LA 1 YZ    0.000001   0.000042  -0.000001   0.000019   0.000020
   17  LA 1  S   -0.000010  -0.000098  -0.000011  -0.000121  -0.000149
   18  LA 1  X    0.000000  -0.000003  -0.000012  -0.000015   0.000010
   19  LA 1  Y   -0.000000   0.000018  -0.000016   0.000019   0.000006
   20  LA 1  Z    0.000001  -0.000079  -0.000007  -0.000041  -0.000055
   21  LA 1  S    0.000005   0.000054   0.000017   0.000183   0.000226
   22  LA 1  X   -0.000000   0.000002   0.000029   0.000037  -0.000021
   23  LA 1  Y    0.000000  -0.000010   0.000038  -0.000058  -0.000027
   24  LA 1  Z   -0.000000   0.000047   0.000023   0.000148   0.000195
   25  LA 1  S   -0.000012   0.000009  -0.000001  -0.000011  -0.000014
   26  LA 1  X   -0.000001  -0.000002   0.000010   0.000010  -0.000011
   27  LA 1  Y    0.000005   0.000011   0.000015  -0.000002   0.000013
   28  LA 1  Z   -0.000021  -0.000049   0.000001  -0.000028  -0.000030
   29  LA 1 XX   -0.000001  -0.000015   0.000008  -0.000050  -0.000053
   30  LA 1 YY   -0.000001  -0.000013  -0.000026  -0.000026  -0.000057
   31  LA 1 ZZ    0.000002   0.000029   0.000019   0.000076   0.000110
   32  LA 1 XY   -0.000000  -0.000000   0.000004   0.000002  -0.000004
   33  LA 1 XZ    0.000000   0.000002   0.000024   0.000032  -0.000017
   34  LA 1 YZ   -0.000001  -0.000011   0.000025  -0.000049  -0.000031
   35  P  2  S    1.000136   0.000073   0.000009   0.000089   0.000110
   36  P  2  S    0.000166   0.000451   0.000061   0.000635   0.000783
   37  P  2  S    0.000182   0.000592   0.000094   0.000982   0.001211
   38  P  2  S   -0.000940  -0.000181  -0.000031  -0.000321  -0.000395
   39  P  2  S   -0.000364  -0.002396   0.000016   0.000157   0.000194
   40  P  2  X   -0.000003  -0.000004   0.000330   0.000374  -0.000318
   41  P  2  Y    0.000017   0.000023   0.000477  -0.000299   0.000138
   42  P  2  Z   -0.000077  -0.000102   0.000110   0.000074   0.000232
   43  P  2  X   -0.000002  -0.000010   0.000867   0.000980  -0.000835
   44  P  2  Y    0.000015   0.000064   0.001253  -0.000782   0.000367
   45  P  2  Z   -0.000068  -0.000286   0.000287   0.000178   0.000591
   46  P  2  X    0.000001   0.000004  -0.000039  -0.000045   0.000037
   47  P  2  Y   -0.000009  -0.000027  -0.000057   0.000038  -0.000013
   48  P  2  Z    0.000040   0.000119  -0.000014  -0.000020  -0.000041
   49  P  2  X   -0.000003   0.000050  -0.000034  -0.000027   0.000046
   50  P  2  Y    0.000019  -0.000311  -0.000055  -0.000036  -0.000096
   51  P  2  Z   -0.000084   0.001380   0.000019   0.000293   0.000346
   52  P  2 XX   -0.000003  -0.000064   0.000206  -0.000067   0.000113
   53  P  2 YY   -0.000003  -0.000055  -0.000225   0.000160  -0.000048
   54  P  2 ZZ    0.000006   0.000119   0.000019  -0.000093  -0.000065
   55  P  2 XY   -0.000000  -0.000002   0.000136   0.000148  -0.000129
   56  P  2 XZ    0.000000   0.000008   0.000098   0.000119  -0.000113
   57  P  2 YZ   -0.000003  -0.000048   0.000050  -0.000007   0.000057
   58  P  2 XX   -0.000026  -0.000036   0.000303   0.000048   0.000299
   59  P  2 YY   -0.000022  -0.000031  -0.000392   0.000380   0.000034
   60  P  2 ZZ    0.000047   0.000067   0.000089  -0.000428  -0.000333
   61  P  2 XY   -0.000001  -0.000001   0.000155   0.000156  -0.000129
   62  P  2 XZ    0.000003   0.000005   0.000305   0.000336  -0.000339
   63  P  2 YZ   -0.000019  -0.000027   0.000317  -0.000045   0.000280
   64  P  2 XXX   0.000001   0.000010   0.000025   0.000030  -0.000018
   65  P  2 YYY  -0.000006   0.000028   0.000027  -0.000082  -0.000066
   66  P  2 ZZZ  -0.000013  -0.000186  -0.000034  -0.000039  -0.000088
   67  P  2 XXY  -0.000001  -0.000164   0.000019   0.000045   0.000065
   68  P  2 XXZ   0.000010   0.000113   0.000019   0.000044   0.000082
   69  P  2 YYX   0.000000   0.000004   0.000005   0.000006  -0.000002
   70  P  2 YYZ   0.000007   0.000137   0.000026   0.000008   0.000036
   71  P  2 ZZX  -0.000001  -0.000017  -0.000039  -0.000046   0.000026
   72  P  2 ZZY   0.000008   0.000127  -0.000055   0.000065   0.000023
   73  P  2 XYZ   0.000000   0.000012   0.000020   0.000027  -0.000024
   74  P  2 XX    0.000001   0.000022  -0.000005   0.000004  -0.000001
   75  P  2 YY    0.000001   0.000019   0.000005  -0.000002   0.000003
   76  P  2 ZZ   -0.000002  -0.000041  -0.000000  -0.000001  -0.000002
   77  P  2 XY    0.000000   0.000001  -0.000004  -0.000004   0.000003
   78  P  2 XZ   -0.000000  -0.000003  -0.000002  -0.000002   0.000002
   79  P  2 YZ    0.000001   0.000016   0.000000   0.000001   0.000001
   80  O  3  S    0.000000   0.975738   0.000003   0.000028   0.000035
   81  O  3  S    0.000001  -0.001102   0.000004   0.000041   0.000051
   82  O  3  S    0.000005   0.043193  -0.000001  -0.000012  -0.000015
   83  O  3  S   -0.000071   0.004781   0.000015   0.000146   0.000180
   84  O  3  X    0.000000   0.000020  -0.000005  -0.000006   0.000004
   85  O  3  Y   -0.000000  -0.000120  -0.000007   0.000007   0.000001
   86  O  3  Z    0.000001   0.000533  -0.000003  -0.000012  -0.000017
   87  O  3  X   -0.000001  -0.000020   0.000013   0.000016  -0.000011
   88  O  3  Y    0.000003   0.000121   0.000018  -0.000020  -0.000004
   89  O  3  Z   -0.000015  -0.000541   0.000008   0.000038   0.000053
[...]
            143  C  4 XXY     0.00128     0.07595
            144  C  4 XXZ     0.00083     0.07715
            145  C  4 YYX     0.00084     0.06917
            146  C  4 YYZ     0.00137     0.06650
            147  C  4 ZZX     0.00000     0.06974
            148  C  4 ZZY     0.00000     0.06671
            149  C  4 XYZ     0.00000     0.00297
            150  C  5  S      1.95557     1.55551
            151  C  5  S      0.82770     0.43095
            152  C  5  S      0.16165     0.27779
            153  C  5  S      0.32631     0.14841
            154  C  5  X      0.27262     0.21129
            155  C  5  Y      0.29403     0.22597
            156  C  5  Z      0.29357     0.22576
            157  C  5  X      0.51536     0.26589
            158  C  5  Y      0.53809     0.27921
            159  C  5  Z      0.53890     0.28024
            160  C  5  X      0.13808     0.18412
            161  C  5  Y      0.19141     0.20331
            162  C  5  Z      0.23187     0.20981
            163  C  5 XX      0.00523     0.08565
            164  C  5 YY      0.00526     0.08683
            165  C  5 ZZ      0.00422     0.08565
            166  C  5 XY      0.00421     0.00465
            167  C  5 XZ      0.00336     0.00456
            168  C  5 YZ      0.00000     0.00377
            169  C  5 XX      0.00892     0.09196
            170  C  5 YY      0.01277     0.09062
            171  C  5 ZZ      0.01145     0.08553
            172  C  5 XY      0.01049     0.02638
            173  C  5 XZ      0.00818     0.02497
            174  C  5 YZ      0.00000     0.01537
            175  C  5 XXX     0.00091     0.15949
            176  C  5 YYY     0.00073     0.17158
            177  C  5 ZZZ     0.00082     0.16838
            178  C  5 XXY     0.00126     0.07617
            179  C  5 XXZ     0.00087     0.07830
            180  C  5 YYX     0.00079     0.06903
            181  C  5 YYZ     0.00138     0.06679
            182  C  5 ZZX     0.00000     0.07010
            183  C  5 ZZY     0.00000     0.06657
            184  C  5 XYZ     0.00000     0.00290
            185  C  6  S      1.95557     1.55588
            186  C  6  S      0.82770     0.43297
            187  C  6  S      0.16165     0.27885
            188  C  6  S      0.32631     0.14928
            189  C  6  X      0.30054     0.22829
            190  C  6  Y      0.26095     0.20764
            191  C  6  Z      0.29873     0.22895
            192  C  6  X      0.54378     0.27939
            193  C  6  Y      0.50240     0.26674
            194  C  6  Z      0.54616     0.28020
            195  C  6  X      0.20299     0.20679
            196  C  6  Y      0.11111     0.17217
            197  C  6  Z      0.24725     0.21276
            198  C  6 XX      0.00567     0.08699
            199  C  6 YY      0.00599     0.09051
            200  C  6 ZZ      0.00358     0.08670
            201  C  6 XY      0.00431     0.00323
            202  C  6 XZ      0.00271     0.00456
            203  C  6 YZ      0.00000     0.00259
            204  C  6 XX      0.01083     0.08871
            205  C  6 YY      0.01478     0.10351
            206  C  6 ZZ      0.01023     0.08715
            207  C  6 XY      0.00868     0.02262
            208  C  6 XZ      0.00729     0.01984
            209  C  6 YZ      0.00000     0.01317
            210  C  6 XXX     0.00089     0.16272
            211  C  6 YYY     0.00095     0.16928
            212  C  6 ZZZ     0.00061     0.16664
            213  C  6 XXY     0.00141     0.07100
            214  C  6 XXZ     0.00094     0.07563
            215  C  6 YYX     0.00050     0.07869
            216  C  6 YYZ     0.00147     0.07296
            217  C  6 ZZX     0.00000     0.07395
            218  C  6 ZZY     0.00000     0.06417
            219  C  6 XYZ     0.00000     0.00268
            220  H  7  S      0.25349     0.19551
            221  H  7  S      0.45319     0.24537
            222  H  7  S      0.06415     0.12031
            223  H  7  X      0.00160     0.00207
            224  H  7  Y      0.00744     0.01097
            225  H  7  Z      0.00172     0.00219
            226  H  7  X      0.01054     0.02872
            227  H  7  Y      0.00477     0.04767
            228  H  7  Z      0.00879     0.02994
            229  H  7 XX      0.00031     0.06939
            230  H  7 YY      0.00064     0.11694
            231  H  7 ZZ      0.00101     0.06995
            232  H  7 XY      0.00009     0.00486
            233  H  7 XZ      0.00084     0.00015
            234  H  7 YZ      0.00000     0.00513
            235  H  8  S      0.24832     0.19098
            236  H  8  S      0.44834     0.24048
            237  H  8  S      0.04843     0.11520
            238  H  8  X      0.00161     0.00209
            239  H  8  Y      0.00185     0.00258
            240  H  8  Z      0.00731     0.01055
            241  H  8  X      0.00954     0.02890
            242  H  8  Y      0.00778     0.02896
            243  H  8  Z      0.00619     0.04759
            244  H  8 XX      0.00091     0.06815
            245  H  8 YY      0.00012     0.07060
            246  H  8 ZZ      0.00010     0.11250
            247  H  8 XY      0.00094     0.00020
            248  H  8 XZ      0.00079     0.00491
            249  H  8 YZ      0.00000     0.00540
            250  H  9  S      0.25349     0.18784
            251  H  9  S      0.45317     0.24332
            252  H  9  S      0.06410     0.12063
            253  H  9  X      0.00586     0.00773
            254  H  9  Y      0.00248     0.00354
            255  H  9  Z      0.00241     0.00338
            256  H  9  X      0.00976     0.04418
            257  H  9  Y      0.00702     0.03128
            258  H  9  Z      0.00732     0.03221
            259  H  9 XX      0.00046     0.09988
            260  H  9 YY      0.00090     0.07541
            261  H  9 ZZ      0.00063     0.07463
            262  H  9 XY      0.00065     0.00524
            263  H  9 XZ      0.00025     0.00527
            264  H  9 YZ      0.00000     0.00164
            265  H 10  S      0.25349     0.18716
            266  H 10  S      0.45317     0.24308
            267  H 10  S      0.06409     0.12060
            268  H 10  X      0.00562     0.00740
            269  H 10  Y      0.00245     0.00345
            270  H 10  Z      0.00268     0.00375
            271  H 10  X      0.01018     0.04366
            272  H 10  Y      0.00706     0.03117
            273  H 10  Z      0.00686     0.03294
            274  H 10 XX      0.00051     0.09795
            275  H 10 YY      0.00088     0.07478
            276  H 10 ZZ      0.00060     0.07672
            277  H 10 XY      0.00062     0.00495
            278  H 10 XZ      0.00027     0.00535
            279  H 10 YZ      0.00000     0.00191
            280  H 11  S      0.24833     0.19104
            281  H 11  S      0.44834     0.24044
            282  H 11  S      0.04843     0.11517
            283  H 11  X      0.00163     0.00218
            284  H 11  Y      0.00185     0.00257
            285  H 11  Z      0.00728     0.01050
            286  H 11  X      0.00990     0.02902
            287  H 11  Y      0.00779     0.02896
            288  H 11  Z      0.00583     0.04750
            289  H 11 XX      0.00088     0.06833
            290  H 11 YY      0.00013     0.07062
            291  H 11 ZZ      0.00010     0.11237
            292  H 11 XY      0.00095     0.00022
            293  H 11 XZ      0.00079     0.00493
            294  H 11 YZ      0.00000     0.00538
            295  H 12  S      0.25349     0.19551
            296  H 12  S      0.45319     0.24538
            297  H 12  S      0.06417     0.12029
            298  H 12  X      0.00159     0.00205
            299  H 12  Y      0.00744     0.01097
            300  H 12  Z      0.00172     0.00219
            301  H 12  X      0.01064     0.02881
            302  H 12  Y      0.00481     0.04773
            303  H 12  Z      0.00865     0.02983
            304  H 12 XX      0.00031     0.06941
            305  H 12 YY      0.00064     0.11695
            306  H 12 ZZ      0.00101     0.06993
            307  H 12 XY      0.00009     0.00484
            308  H 12 XZ      0.00083     0.00014
            309  H 12 YZ      0.00000     0.00515
            310  H 13  S      0.25349     0.18736
            311  H 13  S      0.45319     0.24258
            312  H 13  S      0.06415     0.12020
            313  H 13  X      0.00538     0.00687
            314  H 13  Y      0.00263     0.00397
            315  H 13  Z      0.00274     0.00388
            316  H 13  X      0.00434     0.04115
            317  H 13  Y      0.01280     0.03365
            318  H 13  Z      0.00696     0.03270
            319  H 13 XX      0.00050     0.09603
            320  H 13 YY      0.00073     0.07636
            321  H 13 ZZ      0.00072     0.07711
            322  H 13 XY      0.00060     0.00489
            323  H 13 XZ      0.00033     0.00522
            324  H 13 YZ      0.00000     0.00212
            325  H 14  S      0.25349     0.18813
            326  H 14  S      0.45318     0.24287
            327  H 14  S      0.06411     0.12022
            328  H 14  X      0.00562     0.00721
            329  H 14  Y      0.00265     0.00407
            330  H 14  Z      0.00247     0.00351
            331  H 14  X      0.00401     0.04189
            332  H 14  Y      0.01280     0.03380
            333  H 14  Z      0.00729     0.03179
            334  H 14 XX      0.00046     0.09807
            335  H 14 YY      0.00076     0.07707
            336  H 14 ZZ      0.00075     0.07493
            337  H 14 XY      0.00062     0.00519
            338  H 14 XZ      0.00029     0.00516
            339  H 14 YZ      0.00000     0.00184
            340  H 15  S      0.24832     0.19128
            341  H 15  S      0.44834     0.24056
            342  H 15  S      0.04843     0.11521
            343  H 15  X      0.00163     0.00210
            344  H 15  Y      0.00199     0.00305
            345  H 15  Z      0.00715     0.01020
            346  H 15  X      0.00794     0.02801
            347  H 15  Y      0.01128     0.03093
            348  H 15  Z      0.00430     0.04719
            349  H 15 XX      0.00085     0.06756
            350  H 15 YY      0.00019     0.07251
            351  H 15 ZZ      0.00011     0.11166
            352  H 15 XY      0.00077     0.00028
            353  H 15 XZ      0.00094     0.00503
            354  H 15 YZ      0.00000     0.00532

          ----- MULLIKEN ATOMIC OVERLAP POPULATIONS -----
          (OFF-DIAGONAL ELEMENTS NEED TO BE MULTIPLIED BY 2)

             1           2           3           4           5

    1    8.4860974
    2   -0.0086323  13.2004482
    3    0.1136162   0.2589589   8.4367146
    4    0.0001394   0.3459647  -0.0196285   5.0171581
    5    0.0001395   0.3459636  -0.0196333  -0.0325373   5.0171642
    6    0.0001385   0.3459655  -0.0196321  -0.0325212  -0.0325239
    7    0.0005312  -0.0165537   0.0008518   0.3649186  -0.0026406
    8    0.0004657  -0.0135723   0.0012986   0.3582658  -0.0001993
    9    0.0005276  -0.0165466   0.0008485   0.3649489   0.0024822
   10    0.0005275  -0.0165479   0.0008484   0.0024822   0.3649462
   11    0.0004655  -0.0135692   0.0012987  -0.0001962   0.3582663
   12    0.0005314  -0.0165542   0.0008528  -0.0026442   0.3649153
   13    0.0005305  -0.0165490   0.0008511   0.0024833  -0.0026490
   14    0.0005287  -0.0165453   0.0008492  -0.0026467   0.0024828
   15    0.0004665  -0.0135869   0.0012984  -0.0001966  -0.0001936

             6           7           8           9          10

    6    5.0171162
    7    0.0024837   0.4891185
    8   -0.0001958  -0.0114315   0.4595340
    9   -0.0026477  -0.0191723  -0.0114376   0.4890253
   10   -0.0026420  -0.0000040   0.0000019  -0.0000769   0.4890095
   11   -0.0001997  -0.0001874  -0.0000559   0.0000020  -0.0114344
   12    0.0024838   0.0007335  -0.0001868  -0.0000042  -0.0191741
   13    0.3649340  -0.0000770   0.0000016  -0.0000037   0.0007379
   14    0.3649416  -0.0000038  -0.0001867   0.0007396  -0.0000035
   15    0.3582725   0.0000018  -0.0000602  -0.0001876  -0.0001890

            11          12          13          14          15

   11    0.4595272
   12   -0.0114326   0.4891465
   13   -0.0001852  -0.0000042   0.4890985
   14    0.0000013  -0.0000770  -0.0191733   0.4890516
   15   -0.0000593   0.0000022  -0.0114331  -0.0114368   0.4595412

          TOTAL MULLIKEN AND LOWDIN ATOMIC POPULATIONS
       ATOM         MULL.POP.    CHARGE          LOW.POP.     CHARGE
    1 LA            8.596073    2.403927         8.771084    2.228916
    2 P            14.348644    0.651356        14.318612    0.681388
    3 O             8.759393   -0.759393         8.368813   -0.368813
    4 C             6.365990   -0.365990         6.032339   -0.032339
    5 C             6.365983   -0.365983         6.033485   -0.033485
    6 C             6.365973   -0.365973         6.047185   -0.047185
    7 H             0.808569    0.191431         0.949182    0.050818
    8 H             0.782242    0.217758         0.929113    0.070887
    9 H             0.808498    0.191502         0.936173    0.063827
   10 H             0.808482    0.191518         0.934882    0.065118
   11 H             0.782241    0.217759         0.929216    0.070784
   12 H             0.808588    0.191412         0.949179    0.050821
   13 H             0.808562    0.191438         0.934099    0.065901
   14 H             0.808522    0.191478         0.935755    0.064245
   15 H             0.782240    0.217760         0.930884    0.069116

          MULLIKEN SPHERICAL HARMONIC POPULATIONS
       ATOM           S       P       D      F      G      H      I    TOTAL
    1 LA            2.02    6.17    0.41   0.00   0.00   0.00   0.00    8.60
    2 P             5.33    8.37    0.57   0.07   0.00   0.00   0.00   14.35
    3 O             3.71    5.01    0.04   0.00   0.00   0.00   0.00    8.76
    4 C             3.27    3.01    0.07   0.01   0.00   0.00   0.00    6.37
    5 C             3.27    3.01    0.07   0.01   0.00   0.00   0.00    6.37
    6 C             3.27    3.01    0.07   0.01   0.00   0.00   0.00    6.37
    7 H             0.77    0.03    0.00   0.00   0.00   0.00   0.00    0.81
    8 H             0.75    0.03    0.00   0.00   0.00   0.00   0.00    0.78
    9 H             0.77    0.03    0.00   0.00   0.00   0.00   0.00    0.81
   10 H             0.77    0.03    0.00   0.00   0.00   0.00   0.00    0.81
   11 H             0.75    0.03    0.00   0.00   0.00   0.00   0.00    0.78
   12 H             0.77    0.03    0.00   0.00   0.00   0.00   0.00    0.81
   13 H             0.77    0.03    0.00   0.00   0.00   0.00   0.00    0.81
   14 H             0.77    0.03    0.00   0.00   0.00   0.00   0.00    0.81
   15 H             0.75    0.03    0.00   0.00   0.00   0.00   0.00    0.78

          -------------------------------
          BOND ORDER AND VALENCE ANALYSIS     BOND ORDER THRESHOLD=0.050
          -------------------------------

                   BOND                       BOND                       BOND
  ATOM PAIR DIST  ORDER      ATOM PAIR DIST  ORDER      ATOM PAIR DIST  ORDER
    1   3  2.300  0.639        2   3  1.687  0.836        2   4  1.774  1.010
    2   5  1.774  1.010        2   6  1.774  1.010        4   7  1.089  0.879
    4   8  1.094  0.860        4   9  1.089  0.879        5  10  1.089  0.879
    5  11  1.094  0.860        5  12  1.089  0.879        6  13  1.089  0.879
    6  14  1.089  0.879        6  15  1.094  0.860

                       TOTAL       BONDED        FREE
      ATOM            VALENCE     VALENCE     VALENCE
    1 LA                0.491       0.707      -0.216
    2 P                 4.612       4.242       0.369
    3 O                 2.158       1.510       0.648
    4 C                 3.934       3.642       0.292
    5 C                 3.934       3.642       0.292
    6 C                 3.934       3.642       0.292
    7 H                 0.979       0.927       0.051
    8 H                 0.969       0.918       0.051
    9 H                 0.979       0.927       0.051
   10 H                 0.979       0.927       0.051
   11 H                 0.969       0.918       0.051
   12 H                 0.979       0.927       0.051
   13 H                 0.979       0.927       0.051
   14 H                 0.979       0.927       0.051
   15 H                 0.969       0.918       0.051

          ---------------------
          ELECTROSTATIC MOMENTS
          ---------------------

 POINT   1           X           Y           Z (BOHR)    CHARGE
                -0.223780    1.482051   -4.702945        3.00 (A.U.)
         DX          DY          DZ         /D/  (DEBYE)
    -0.093093    0.584960   -2.607956    2.674375
 ...... END OF PROPERTY EVALUATION ......
 CPU     0: STEP CPU TIME=     0.21 TOTAL CPU TIME=     1691.8 (   28.2 MIN)
 TOTAL WALL CLOCK TIME=     1714.5 SECONDS, CPU UTILIZATION IS  98.68%
  $VIB   
          IVIB=   0 IATOM=   0 ICOORD=   0 E=     -565.5976680588
 -3.801630461E-07 1.029426987E-06 2.443900345E-07-3.519040839E-06 2.168088699E-05
 -8.214713339E-05 2.170313199E-06 9.672810022E-06-3.338689045E-05 3.283190912E-05
 -3.480205292E-05 7.351937883E-05-2.660422361E-05-3.976620202E-05 7.839080609E-05
  3.659279896E-06 1.611804356E-05 7.874049077E-05-4.496119650E-06 1.464862610E-08
 -2.173149308E-05-1.740624603E-05 1.492462489E-05-1.618979706E-06 1.798016329E-06
  1.232280590E-06-1.114647770E-05-2.774827109E-06 2.939191384E-06-1.269360020E-05
  1.518710458E-05 1.835013738E-05-2.120887244E-06 2.517986265E-06 1.121158390E-07
 -2.250434422E-05-5.421239605E-06 4.221681773E-06-1.904494468E-05 1.275321259E-06
  4.851733747E-06-1.397351025E-05 1.161929243E-06-2.057932684E-05-1.052680480E-05
 -9.309273994E-02 5.849598962E-01-2.607956152E+00
 ......END OF GEOMETRY SEARCH......
 CPU     0: STEP CPU TIME=     0.01 TOTAL CPU TIME=     1691.9 (   28.2 MIN)
 TOTAL WALL CLOCK TIME=     1714.6 SECONDS, CPU UTILIZATION IS  98.67%
               2991967  WORDS OF DYNAMIC MEMORY USED
 EXECUTION OF GAMESS TERMINATED NORMALLY Thu Jun  9 11:33:39 2016
 DDI: 44487344 bytes (42.4 MB / 5 MWords) used by master data server.

 ----------------------------------------
 CPU timing information for all processes
 ========================================
 0: 1689.196 + 2.750 = 1691.946
 1: 1689.60 + 2.360 = 1691.420
 2: 1689.84 + 2.542 = 1691.626
 3: 1688.465 + 2.502 = 1690.967
 4: 1690.155 + 2.573 = 1692.728
 5: 1689.844 + 2.513 = 1692.357
 6: 1690.646 + 2.590 = 1693.237
 7: 1690.344 + 2.475 = 1692.819
 8: 1689.924 + 2.604 = 1692.528
 9: 1692.34 + 2.576 = 1694.611
 10: 1690.643 + 2.672 = 1693.316
 11: 1690.158 + 2.535 = 1692.693
 12: 1690.673 + 2.481 = 1693.155
 13: 1690.323 + 2.489 = 1692.812
 14: 1689.449 + 2.524 = 1691.973
 15: 1689.265 + 1.900 = 1691.165
 16: 0.12 + 0.76 = 0.89
 17: 0.15 + 0.77 = 0.93
 18: 0.19 + 0.63 = 0.83
 19: 0.13 + 0.71 = 0.85
 20: 0.11 + 0.75 = 0.87
 21: 0.16 + 0.72 = 0.89
 22: 0.14 + 0.69 = 0.84
 23: 0.11 + 0.68 = 0.80
 24: 0.13 + 0.63 = 0.77
 25: 0.14 + 0.65 = 0.80
 26: 0.13 + 0.69 = 0.83
 27: 0.07 + 0.78 = 0.86
 28: 0.22 + 0.67 = 0.90
 29: 0.18 + 0.70 = 0.89
 30: 0.12 + 0.72 = 0.85
 31: 0.10 + 0.71 = 0.82
 ----------------------------------------
unset echo
----- accounting info -----
Files used on the master node node202 were:
-rw-r--r-- 1 fzahari quantum     1998 Jun  9 11:05 /local/scratch/fzahari/196593.share/bnd_var-023.F05
-rw-r--r-- 1 fzahari quantum 17178000 Jun  9 11:33 /local/scratch/fzahari/196593.share/bnd_var-023.F10
-rw-r--r-- 1 fzahari quantum        8 Jun  9 11:05 /local/scratch/fzahari/196593.share/bnd_var-023.nodes.mpd
ls: No match.
ls: No match.
ls: No match.
Thu Jun  9 11:33:42 CDT 2016
27040.090u 47.064s 28:39.15 1575.6%	0+0k 128+273800io 0pf+0w
