----- GAMESS execution script 'rungms' -----
This job is running on host node212
under operating system Linux at Thu Jun 9 10:50:03 CDT 2016
PBS has assigned the following compute nodes to this run:
node212
Available scratch disk space (Kbyte units) at beginning of the job is
Filesystem           1K-blocks      Used Available Use% Mounted on
/dev/sda7            2670838024    208572 2534958668   1% /local
GAMESS temporary binary files will be written to /local/scratch/fzahari/196588.share
GAMESS supplementary output files will be written to /work1/quantum/fzahari/scr
Copying input file bnd_var-018.inp to your run's scratch directory...
cp bnd_var-018.inp /local/scratch/fzahari/196588.share/bnd_var-018.F05
unset echo
setenv I_MPI_WAIT_MODE enable
setenv I_MPI_PIN disable
setenv I_MPI_DEBUG 0
setenv I_MPI_STATS 0
setenv I_MPI_FABRICS dapl
setenv I_MPI_DAT_LIBRARY libdat2.so
unset echo
MPI kickoff will run GAMESS on 16 cores in 1 nodes.
The binary to be executed is /home/mschmidt/gamess/gamess.132.x
MPI will run 16 compute processes and 16 data servers,
    placing 16 of each process type onto each node.
The scratch disk space on each node is /local/scratch/fzahari/196588.share, with free space
Filesystem           1K-blocks      Used Available Use% Mounted on
/dev/sda7            2670838024    208596 2534958644   1% /local
setenv I_MPI_HYDRA_ENV all
setenv I_MPI_PERHOST 32
unset echo
mpiexec.hydra -f /local/scratch/fzahari/196588.share/bnd_var-018.processes.mpd -n 32 /home/mschmidt/gamess/gamess.132.x
          ******************************************************
          *         GAMESS VERSION =  5 DEC 2014 (R1)          *
          *             FROM IOWA STATE UNIVERSITY             *
          * M.W.SCHMIDT, K.K.BALDRIDGE, J.A.BOATZ, S.T.ELBERT, *
          *   M.S.GORDON, J.H.JENSEN, S.KOSEKI, N.MATSUNAGA,   *
          *          K.A.NGUYEN, S.J.SU, T.L.WINDUS,           *
          *       TOGETHER WITH M.DUPUIS, J.A.MONTGOMERY       *
          *         J.COMPUT.CHEM.  14, 1347-1363(1993)        *
          **************** 64 BIT INTEL VERSION ****************

  SINCE 1993, STUDENTS AND POSTDOCS WORKING AT IOWA STATE UNIVERSITY
  AND ALSO IN THEIR VARIOUS JOBS AFTER LEAVING ISU HAVE MADE IMPORTANT
  CONTRIBUTIONS TO THE CODE:
     IVANA ADAMOVIC, CHRISTINE AIKENS, YURI ALEXEEV, POOJA ARORA,
     ANDREY ASADCHEV, ROB BELL, PRADIPTA BANDYOPADHYAY, JONATHAN BENTZ,
     BRETT BODE, KURT BRORSEN, CALEB CARLIN, GALINA CHABAN, WEI CHEN,
     CHEOL HO CHOI, PAUL DAY, ALBERT DEFUSCO, NUWAN DESILVA, TIM DUDLEY,
     DMITRI FEDOROV, GRAHAM FLETCHER, MARK FREITAG, KURT GLAESEMANN,
     DAN KEMP, GRANT MERRILL, NORIYUKI MINEZAWA, JONATHAN MULLIN,
     TAKESHI NAGATA, SEAN NEDD, HEATHER NETZLOFF, BOSILJKA NJEGIC, RYAN OLSON,
     MIKE PAK, SPENCER PRUITT, LUKE ROSKOP, JIM SHOEMAKER, LYUDMILA SLIPCHENKO,
     TONY SMITH, SAROM SOK, JIE SONG, TETSUYA TAKETSUGU, SIMON WEBB,
     PENG XU, SOOHAENG YOO, FEDERICO ZAHARIEV

  ADDITIONAL CODE HAS BEEN PROVIDED BY COLLABORATORS IN OTHER GROUPS:
     IOWA STATE UNIVERSITY:
          JOE IVANIC, AARON WEST, LAIMUTIS BYTAUTAS, KLAUS RUEDENBERG
     UNIVERSITY OF TOKYO: KIMIHIKO HIRAO, TAKAHITO NAKAJIMA,
          TAKAO TSUNEDA, MUNEAKI KAMIYA, SUSUMU YANAGISAWA,
          KIYOSHI YAGI, MAHITO CHIBA, SEIKEN TOKURA, NAOAKI KAWAKAMI
     UNIVERSITY OF AARHUS: FRANK JENSEN
     UNIVERSITY OF IOWA: VISVALDAS KAIRYS, HUI LI
     NATIONAL INST. OF STANDARDS AND TECHNOLOGY: WALT STEVENS, DAVID GARMER
     UNIVERSITY OF PISA: BENEDETTA MENNUCCI, JACOPO TOMASI
     UNIVERSITY OF MEMPHIS: HENRY KURTZ, PRAKASHAN KORAMBATH
     UNIVERSITY OF ALBERTA: TOBY ZENG, MARIUSZ KLOBUKOWSKI
     UNIVERSITY OF NEW ENGLAND: MARK SPACKMAN
     MIE UNIVERSITY: HIROAKI UMEDA
     NAT. INST. OF ADVANCED INDUSTRIAL SCIENCE AND TECHNOLOGY: KAZUO KITAURA
     MICHIGAN STATE UNIVERSITY:
          KAROL KOWALSKI, MARTA WLOCH, JEFFREY GOUR, JESSE LUTZ,
          WEI LI, PIOTR PIECUCH
     UNIVERSITY OF SILESIA: MONIKA MUSIAL, STANISLAW KUCHARSKI
     FACULTES UNIVERSITAIRES NOTRE-DAME DE LA PAIX:
          OLIVIER QUINET, BENOIT CHAMPAGNE
     UNIVERSITY OF CALIFORNIA - SANTA BARBARA: BERNARD KIRTMAN
     INSTITUTE FOR MOLECULAR SCIENCE:
          KAZUYA ISHIMURA, MICHIO KATOUDA, AND SHIGERU NAGASE
     UNIVERSITY OF NOTRE DAME: ANNA POMOGAEVA, DAN CHIPMAN
     KYUSHU UNIVERSITY:
          HARUYUKI NAKANO,
          FENG LONG GU, JACEK KORCHOWIEC, MARCIN MAKOWSKI, AND YURIKO AOKI,
          HIROTOSHI MORI AND EISAKU MIYOSHI
     PENNSYLVANIA STATE UNIVERSITY:
          TZVETELIN IORDANOV, CHET SWALINA, JONATHAN SKONE,
          SHARON HAMMES-SCHIFFER
     WASEDA UNIVERSITY:
          MASATO KOBAYASHI, TOMOKO AKAMA, TSUGUKI TOUMA,
          TAKESHI YOSHIKAWA, YASUHIRO IKABATA, HIROMI NAKAI
     NANJING UNIVERSITY: SHUHUA LI
     UNIVERSITY OF NEBRASKA:
          PEIFENG SU, DEJUN SI, NANDUN THELLAMUREGE, YALI WANG, HUI LI
     UNIVERSITY OF ZURICH: ROBERTO PEVERATI, KIM BALDRIDGE
     N. COPERNICUS UNIVERSITY AND JACKSON STATE UNIVERSITY:
          MARIA BARYSZ
     UNIVERSITY OF COPENHAGEN: CASPER STEINMANN
     TOKYO INSTITUTE OF TECHNOLOGY: HIROYA NAKATA
     NAGOYA UNIVERSITY: YOSHIO NISHIMOTO, STEPHAN IRLE


 PARALLEL VERSION RUNNING ON       16 PROCESSORS IN        1 NODES.

 EXECUTION OF GAMESS BEGUN Thu Jun  9 10:50:04 2016

            ECHO OF THE FIRST FEW INPUT CARDS -
 INPUT CARD> $ZMAT DLC=.T. AUTO=.T. $END                                                    
 INPUT CARD> $ZMAT IFZMAT(1)=1, 1 , 3  FVALUE(1)= 1.8 $END                                  
 INPUT CARD> $CONTRL COORD=UNIQUE NZVAR= 39 $END                                            
 INPUT CARD> $CONTRL ICHARG=+3 MULT=1                                                       
 INPUT CARD>         MPLEVL=2                                                               
 INPUT CARD>         SCFTYP=RHF                                                             
 INPUT CARD>         MAXIT=200 ISPHER=1 ICUT=11                                             
 INPUT CARD>         RUNTYP=OPTIMIZE                                                        
 INPUT CARD>         PP=READ                                                                
 INPUT CARD>         $END                                                                   
 INPUT CARD> $SCF    DIRSCF=.T. FDIFF=.F. $END                                              
 INPUT CARD> $TRANS  DIRTRF=.T. $END                                                        
 INPUT CARD> $SYSTEM MWORDS=300 MEMDDI=300 $END                                             
 INPUT CARD> $GUESS  GUESS=HUCKEL $END                                                      
 INPUT CARD> $BASIS  BASNAM(1)=METAL,                                                       
 INPUT CARD>                   LIGP,                                                        
 INPUT CARD>                   LIGO,                                                        
 INPUT CARD>                   LIGC,                                                        
 INPUT CARD>                   LIGC,                                                        
 INPUT CARD>                   LIGC,                                                        
 INPUT CARD>                   LIGH,                                                        
 INPUT CARD>                   LIGH,                                                        
 INPUT CARD>                   LIGH,                                                        
 INPUT CARD>                   LIGH,                                                        
 INPUT CARD>                   LIGH,                                                        
 INPUT CARD>                   LIGH,                                                        
 INPUT CARD>                   LIGH,                                                        
 INPUT CARD>                   LIGH,                                                        
 INPUT CARD>                   LIGH                                                         
 INPUT CARD> $END                                                                           
 INPUT CARD> $DATA                                                                          
 INPUT CARD>                                                                                
 INPUT CARD> C1                                                                             
 INPUT CARD> LA 57.0 -0.1739353441 1.134168269 -4.0490164368                                
 INPUT CARD> P 15.0 -0.0503340748223 0.356330608658 -0.580648142128                         
 INPUT CARD> O 8.0 -0.112146597822 0.740571528558 -2.29366355013                            
 INPUT CARD> C 6.0 -1.49982597092 1.06878637246 0.155028733272                              
 INPUT CARD> C 6.0 1.44219288098 1.07907524196 0.0517630454718                              
 INPUT CARD> C 6.0 -0.0394040954223 -1.41394943924 -0.453885388928                          
 INPUT CARD> H 1.0 -1.50157463772 2.15161944346 0.0416573352718                             
 INPUT CARD> H 1.0 -1.46309337462 0.832583594858 1.22292125717                              
 INPUT CARD> H 1.0 -2.40422055972 0.631081238458 -0.264121781728                            
 INPUT CARD> H 1.0 2.31826136958 0.647108139758 -0.429067236328                             
 INPUT CARD> H 1.0 1.48137868028 0.842513370858 1.11950606937                               
 INPUT CARD> H 1.0 1.42895573978 2.16182891676 -0.0610959572282                             
 INPUT CARD> H 1.0 0.842786404278 -1.83314078444 -0.934952694428                            
 INPUT CARD> H 1.0 -0.950785597122 -1.83999592724 -0.870084593628                           
 INPUT CARD> H 1.0 0.000106093277713 -1.65529626374 0.612684764972                          
 INPUT CARD> $END                                                                           
 INPUT CARD>!                                                                               
  300000000 WORDS OF MEMORY AVAILABLE

     BASIS OPTIONS
     -------------
     GBASIS=             IGAUSS=       0      POLAR=NONE    
     NDFUNC=       0     NFFUNC=       0     DIFFSP=       F
     NPFUNC=       0      DIFFS=       F     BASNAM=METAL   

 USING BASNAM FOR ATOM CUSTOMIZED BASIS CONSTRUCTION
     ----------------
     ATOM  BASIS NAME
     ----------------
       1   METAL   
       2   LIGP    
       3   LIGO    
       4   LIGC    
       5   LIGC    
       6   LIGC    
       7   LIGH    
       8   LIGH    
       9   LIGH    
      10   LIGH    
      11   LIGH    
      12   LIGH    
      13   LIGH    
      14   LIGH    
      15   LIGH    
 NOW LOCATING ALL   15 BASIS SETS IN YOUR INPUT FILE...
 FOUND BASIS SET  $METAL 
  SBKJC                        
                               
  $END                         
 FOUND BASIS SET  $LIGP  
  CCT                          
                               
  $END                         
 FOUND BASIS SET  $LIGO  
  CCT                          
                               
  $END                         
 FOUND BASIS SET  $LIGC  
  CCT                          
                               
  $END                         
 FOUND BASIS SET  $LIGH  
  CCT                          
                               
  $END                         
    5 UNIQUE ATOM CUSTOMIZED BASIS SETS WERE FOUND.

     SEARCHING FOR $MCP
     $MCP GROUP NOT FOUND


     RUN TITLE
     ---------
                                                                                 

 THE POINT GROUP OF THE MOLECULE IS C1      
 THE ORDER OF THE PRINCIPAL AXIS IS     0

 ATOM      ATOMIC                      COORDINATES (BOHR)
           CHARGE         X                   Y                   Z
 LA         57.0    -0.3286901399        2.1432672524       -7.6515315853
 P          15.0    -0.0951176093        0.6733672114       -1.0972658839
 O           8.0    -0.2119263403        1.3994772633       -4.3343956178
 C           6.0    -2.8342601143        2.0197133834        0.2929618261
 C           6.0     2.7253493665        2.0391565274        0.0978179722
 C           6.0    -0.0744629431       -2.6719770007       -0.8577190149
 H           1.0    -2.8375646154        4.0659711780        0.0787209490
 H           1.0    -2.7648455725        1.5733548562        2.3109860806
 H           1.0    -4.5433180719        1.1925706167       -0.4991177949
 H           1.0     4.3808787564        1.2228570686       -0.8108195070
 H           1.0     2.7993997898        1.5921194119        2.1155597127
 H           1.0     2.7003347968        4.0852642850       -0.1154546181
 H           1.0     1.5926353703       -3.4641337795       -1.7668044040
 H           1.0    -1.7967242516       -3.4770881210       -1.6442214681
 H           1.0     0.0002004872       -3.1280563670        1.1578063226

          INTERNUCLEAR DISTANCES (ANGS.)
          ------------------------------

                1 LA         2 P          3 O          4 C          5 C     

   1 LA      0.0000000    3.5566680    1.8000000 *  4.4086570    4.4080946  
   2 P       3.5566680    0.0000000    1.7566683 *  1.7747790 *  1.7748072 *
   3 O       1.8000000 *  1.7566683 *  0.0000000    2.8336325 *  2.8340046 *
   4 C       4.4086570    1.7747790 *  2.8336325 *  0.0000000    2.9438486 *
   5 C       4.4080946    1.7748072 *  2.8340046 *  2.9438486 *  0.0000000  
   6 C       4.4086245    1.7748464 *  2.8340846 *  2.9440764 *  2.9438040 *
   7 H       4.4194394    2.3909047 *  3.0619096    1.0887532 *  3.1330848  
   8 H       5.4356424    2.3399932 *  3.7682744    1.0943196 *  3.1421422  
   9 H       4.4218431    2.3909116 *  3.0634345    1.0886701 *  3.8852771  
  10 H       4.4217988    2.3911865 *  3.0646921    3.8854564    1.0887099 *
  11 H       5.4349565    2.3394534 *  3.7682147    3.1414960    1.0943364 *
  12 H       4.4191465    2.3912459 *  3.0625687    3.1335625    1.0887001 *
  13 H       4.4199592    2.3910209 *  3.0630030    3.8854953    3.1327142  
  14 H       4.4220761    2.3913253 *  3.0641835    3.1326214    3.8855020  
  15 H       5.4353345    2.3394936 *  3.7682415    3.1432263    3.1418203  

                6 C          7 H          8 H          9 H         10 H     

   1 LA      4.4086245    4.4194394    5.4356424    4.4218431    4.4217988  
   2 P       1.7748464 *  2.3909047 *  2.3399932 *  2.3909116 *  2.3911865 *
   3 O       2.8340846 *  3.0619096    3.7682744    3.0634345    3.0646921  
   4 C       2.9440764 *  1.0887532 *  1.0943196 *  1.0886701 *  3.8854564  
   5 C       2.9438040 *  3.1330848    3.1421422    3.8852771    1.0887099 *
   6 C       0.0000000    3.8854584    3.1441187    3.1321746    3.1316387  
   7 H       3.8854584    0.0000000    1.7710790 *  1.7945214 *  4.1323459  
   8 H       3.1441187    1.7710790 *  0.0000000    1.7713330 *  4.1306308  
   9 H       3.1321746    1.7945214 *  1.7713330 *  0.0000000    4.7253888  
  10 H       3.1316387    4.1323459    4.1306308    4.7253888    0.0000000  
  11 H       3.1432412    3.4312574    2.9463043 *  4.1300134    1.7710548 *
  12 H       3.8854285    2.9323490 *  3.4321337    4.1325112    1.7946159 *
  13 H       1.0887641 *  4.7252629    4.1327458    4.1310360    2.9299456 *
  14 H       1.0887395 *  4.1312995    3.4330473    2.9301683 *  4.1312045  
  15 H       1.0942492 *  4.1320364    2.9500657 *  3.4317777    3.4293086  

               11 H         12 H         13 H         14 H         15 H     

   1 LA      5.4349565    4.4191465    4.4199592    4.4220761    5.4353345  
   2 P       2.3394534 *  2.3912459 *  2.3910209 *  2.3913253 *  2.3394936 *
   3 O       3.7682147    3.0625687    3.0630030    3.0641835    3.7682415  
   4 C       3.1414960    3.1335625    3.8854953    3.1326214    3.1432263  
   5 C       1.0943364 *  1.0887001 *  3.1327142    3.8855020    3.1418203  
   6 C       3.1432412    3.8854285    1.0887641 *  1.0887395 *  1.0942492 *
   7 H       3.4312574    2.9323490 *  4.7252629    4.1312995    4.1320364  
   8 H       2.9463043 *  3.4321337    4.1327458    3.4330473    2.9500657 *
   9 H       4.1300134    4.1325112    4.1310360    2.9301683 *  3.4317777  
  10 H       1.7710548 *  1.7946159 *  2.9299456 *  4.1312045    3.4293086  
  11 H       0.0000000    1.7712038 *  3.4333258    4.1315554    2.9478957 *
  12 H       1.7712038 *  0.0000000    4.1312229    4.7256993    4.1311060  
  13 H       3.4333258    4.1312229    0.0000000    1.7947578 *  1.7711354 *
  14 H       4.1315554    4.7256993    1.7947578 *  0.0000000    1.7711335 *
  15 H       2.9478957 *  4.1311060    1.7711354 *  1.7711335 *  0.0000000  

  * ... LESS THAN  3.000


     ATOMIC BASIS SET
     ----------------
 THE CONTRACTED PRIMITIVE FUNCTIONS HAVE BEEN UNNORMALIZED
 THE CONTRACTED BASIS FUNCTIONS ARE NOW NORMALIZED TO UNITY

  SHELL TYPE  PRIMITIVE        EXPONENT          CONTRACTION COEFFICIENT(S)

 LA        

      1   L       1             9.1730000   -0.054833023521   -0.009797991527
      1   L       2             3.1200000    0.676604290237    0.231261800020
      1   L       3             2.1040000   -1.034429443730   -0.601214480110
      1   L       4             1.3200000   -0.518907222591    0.195188831214
      1   L       5             0.4960000    1.631603699894    1.076136069429

      2   D       6             1.2380000   -0.053797021791
      2   D       7             0.6061000    0.380144153981
      2   D       8             0.2518000    0.720349291785

      3   D       9             0.0978700    1.000000000000

      4   L      10             0.6182000   -0.107095028128   -0.051868986063
      4   L      11             0.0454600    1.033448271434    1.008107729120

      5   L      12             0.0177500    1.000000000000    1.000000000000

      6   L      13             0.2004000    1.000000000000    1.000000000000

      7   D      14             0.0353600    1.000000000000

 P         

      8   S      15        312400.0000000    0.000057689641
      8   S      16         46800.0000000    0.000448246591
      8   S      17         10650.0000000    0.002349131061
      8   S      18          3018.0000000    0.009781571802
      8   S      19           986.8000000    0.034142936511
      8   S      20           357.4000000    0.100192955985
      8   S      21           139.6000000    0.234346168617
      8   S      22            57.6300000    0.382391849918
      8   S      23            24.6000000    0.318052941833
      8   S      24            10.1200000    0.070770999093
      8   S      25             4.2830000   -0.001817789630
      8   S      26             1.8050000    0.002161561737
      8   S      27             0.2782000    0.000432249354

      9   S      28        312400.0000000   -0.000016380204
      9   S      29         46800.0000000   -0.000127233535
      9   S      30         10650.0000000   -0.000668625166
      9   S      31          3018.0000000   -0.002795303744
      9   S      32           986.8000000   -0.009928227435
      9   S      33           357.4000000   -0.030244566456
      9   S      34           139.6000000   -0.077884705328
      9   S      35            57.6300000   -0.156724571545
      9   S      36            24.6000000   -0.198042753651
      9   S      37            10.1200000    0.037971251521
      9   S      38             4.2830000    0.552751544147
      9   S      39             1.8050000    0.542611452452
      9   S      40             0.2782000   -0.009675942874

     10   S      41        312400.0000000    0.000006865735
     10   S      42         46800.0000000    0.000053281983
     10   S      43         10650.0000000    0.000280421002
     10   S      44          3018.0000000    0.001170789768
     10   S      45           986.8000000    0.004173591138
     10   S      46           357.4000000    0.012720496749
     10   S      47           139.6000000    0.033152766352
     10   S      48            57.6300000    0.067671246836
     10   S      49            24.6000000    0.089831018862
     10   S      50            10.1200000   -0.020305232360
     10   S      51             4.2830000   -0.313280408979
     10   S      52             1.8050000   -0.563687905527
     10   S      53             0.2782000    1.117494073734

     11   S      54             0.6158000    1.000000000000

     12   S      55             0.1055000    1.000000000000

     13   P      56           504.9000000    0.002433660431
     13   P      57           119.4000000    0.019305559477
     13   P      58            37.9600000    0.088473106893
     13   P      59            13.9500000    0.254701981099
     13   P      60             5.4570000    0.440199242653
     13   P      61             2.1770000    0.383632006272
     13   P      62             0.2877000   -0.003946337074

     14   P      63           504.9000000   -0.000954298933
     14   P      64           119.4000000   -0.007664025747
     14   P      65            37.9600000   -0.035465925259
     14   P      66            13.9500000   -0.106164716437
     14   P      67             5.4570000   -0.187210586037
     14   P      68             2.1770000   -0.181495819791
     14   P      69             0.2877000    0.991672644618

     15   P      70             0.8010000    1.000000000000

     16   P      71             0.0971400    1.000000000000

     17   D      72             0.6480000    1.000000000000

     18   D      73             0.2180000    1.000000000000

     19   F      74             0.4520000    1.000000000000

     20   D      75             3.1200000    1.000000000000

 O         

     21   S      76         15330.0000000    0.000520198307
     21   S      77          2299.0000000    0.004023344781
     21   S      78           522.4000000    0.020729083329
     21   S      79           147.3000000    0.081082327080
     21   S      80            47.5500000    0.236226352118
     21   S      81            16.7600000    0.443518209420
     21   S      82             6.2070000    0.358670588689
     21   S      83             0.6882000   -0.008349797237

     22   S      84         15330.0000000   -0.000197236012
     22   S      85          2299.0000000   -0.001535010700
     22   S      86           522.4000000   -0.007951183914
     22   S      87           147.3000000   -0.032113452892
     22   S      88            47.5500000   -0.100269643049
     22   S      89            16.7600000   -0.234047111838
     22   S      90             6.2070000   -0.301410927756
     22   S      91             0.6882000    1.034919649508

     23   S      92             1.7520000    1.000000000000

     24   S      93             0.2384000    1.000000000000

     25   P      94            34.4600000    0.041163489568
     25   P      95             7.7490000    0.257762835858
     25   P      96             2.2800000    0.802419274427

     26   P      97             0.7156000    1.000000000000

     27   P      98             0.2140000    1.000000000000

     28   D      99             2.3140000    1.000000000000

     29   D     100             0.6450000    1.000000000000

     30   F     101             1.4280000    1.000000000000

 C         

     31   S     102          8236.0000000    0.000542430189
     31   S     103          1235.0000000    0.004196427901
     31   S     104           280.8000000    0.021540914108
     31   S     105            79.2700000    0.083614949614
     31   S     106            25.5900000    0.239871618922
     31   S     107             8.9970000    0.443751820060
     31   S     108             3.3190000    0.353579696469
     31   S     109             0.3643000   -0.009176366076

     32   S     110          8236.0000000   -0.000196392234
     32   S     111          1235.0000000   -0.001525950274
     32   S     112           280.8000000   -0.007890449028
     32   S     113            79.2700000   -0.031514870532
     32   S     114            25.5900000   -0.096910008320
     32   S     115             8.9970000   -0.220541526288
     32   S     116             3.3190000   -0.296069112937
     32   S     117             0.3643000    1.040503432950

     33   S     118             0.9059000    1.000000000000

     34   S     119             0.1285000    1.000000000000

     35   P     120            18.7100000    0.039426387165
     35   P     121             4.1330000    0.244088984924
     35   P     122             1.2000000    0.815492008943

     36   P     123             0.3827000    1.000000000000

     37   P     124             0.1209000    1.000000000000

     38   D     125             1.0970000    1.000000000000

     39   D     126             0.3180000    1.000000000000

     40   F     127             0.7610000    1.000000000000

 C         

     41   S     128          8236.0000000    0.000542430189
     41   S     129          1235.0000000    0.004196427901
     41   S     130           280.8000000    0.021540914108
     41   S     131            79.2700000    0.083614949614
     41   S     132            25.5900000    0.239871618922
     41   S     133             8.9970000    0.443751820060
     41   S     134             3.3190000    0.353579696469
     41   S     135             0.3643000   -0.009176366076

     42   S     136          8236.0000000   -0.000196392234
     42   S     137          1235.0000000   -0.001525950274
     42   S     138           280.8000000   -0.007890449028
     42   S     139            79.2700000   -0.031514870532
     42   S     140            25.5900000   -0.096910008320
     42   S     141             8.9970000   -0.220541526288
     42   S     142             3.3190000   -0.296069112937
     42   S     143             0.3643000    1.040503432950

     43   S     144             0.9059000    1.000000000000

     44   S     145             0.1285000    1.000000000000

     45   P     146            18.7100000    0.039426387165
     45   P     147             4.1330000    0.244088984924
     45   P     148             1.2000000    0.815492008943

     46   P     149             0.3827000    1.000000000000

     47   P     150             0.1209000    1.000000000000

     48   D     151             1.0970000    1.000000000000

     49   D     152             0.3180000    1.000000000000

     50   F     153             0.7610000    1.000000000000

 C         

     51   S     154          8236.0000000    0.000542430189
     51   S     155          1235.0000000    0.004196427901
     51   S     156           280.8000000    0.021540914108
     51   S     157            79.2700000    0.083614949614
     51   S     158            25.5900000    0.239871618922
     51   S     159             8.9970000    0.443751820060
     51   S     160             3.3190000    0.353579696469
     51   S     161             0.3643000   -0.009176366076

     52   S     162          8236.0000000   -0.000196392234
     52   S     163          1235.0000000   -0.001525950274
     52   S     164           280.8000000   -0.007890449028
     52   S     165            79.2700000   -0.031514870532
     52   S     166            25.5900000   -0.096910008320
     52   S     167             8.9970000   -0.220541526288
     52   S     168             3.3190000   -0.296069112937
     52   S     169             0.3643000    1.040503432950

     53   S     170             0.9059000    1.000000000000

     54   S     171             0.1285000    1.000000000000

     55   P     172            18.7100000    0.039426387165
     55   P     173             4.1330000    0.244088984924
     55   P     174             1.2000000    0.815492008943

     56   P     175             0.3827000    1.000000000000

     57   P     176             0.1209000    1.000000000000

     58   D     177             1.0970000    1.000000000000

     59   D     178             0.3180000    1.000000000000

     60   F     179             0.7610000    1.000000000000

 H         

     61   S     180            33.8700000    0.025494863235
     61   S     181             5.0950000    0.190362765893
     61   S     182             1.1590000    0.852162022245

     62   S     183             0.3258000    1.000000000000

     63   S     184             0.1027000    1.000000000000

     64   P     185             1.4070000    1.000000000000

     65   P     186             0.3880000    1.000000000000

     66   D     187             1.0570000    1.000000000000

 H         

     67   S     188            33.8700000    0.025494863235
     67   S     189             5.0950000    0.190362765893
     67   S     190             1.1590000    0.852162022245

     68   S     191             0.3258000    1.000000000000

     69   S     192             0.1027000    1.000000000000

     70   P     193             1.4070000    1.000000000000

     71   P     194             0.3880000    1.000000000000

     72   D     195             1.0570000    1.000000000000

 H         

     73   S     196            33.8700000    0.025494863235
     73   S     197             5.0950000    0.190362765893
     73   S     198             1.1590000    0.852162022245

     74   S     199             0.3258000    1.000000000000

     75   S     200             0.1027000    1.000000000000

     76   P     201             1.4070000    1.000000000000

     77   P     202             0.3880000    1.000000000000

     78   D     203             1.0570000    1.000000000000

 H         

     79   S     204            33.8700000    0.025494863235
     79   S     205             5.0950000    0.190362765893
     79   S     206             1.1590000    0.852162022245

     80   S     207             0.3258000    1.000000000000

     81   S     208             0.1027000    1.000000000000

     82   P     209             1.4070000    1.000000000000

     83   P     210             0.3880000    1.000000000000

     84   D     211             1.0570000    1.000000000000

 H         

     85   S     212            33.8700000    0.025494863235
     85   S     213             5.0950000    0.190362765893
     85   S     214             1.1590000    0.852162022245

     86   S     215             0.3258000    1.000000000000

     87   S     216             0.1027000    1.000000000000

     88   P     217             1.4070000    1.000000000000

     89   P     218             0.3880000    1.000000000000

     90   D     219             1.0570000    1.000000000000

 H         

     91   S     220            33.8700000    0.025494863235
     91   S     221             5.0950000    0.190362765893
     91   S     222             1.1590000    0.852162022245

     92   S     223             0.3258000    1.000000000000

     93   S     224             0.1027000    1.000000000000

     94   P     225             1.4070000    1.000000000000

     95   P     226             0.3880000    1.000000000000

     96   D     227             1.0570000    1.000000000000

 H         

     97   S     228            33.8700000    0.025494863235
     97   S     229             5.0950000    0.190362765893
     97   S     230             1.1590000    0.852162022245

     98   S     231             0.3258000    1.000000000000

     99   S     232             0.1027000    1.000000000000

    100   P     233             1.4070000    1.000000000000

    101   P     234             0.3880000    1.000000000000

    102   D     235             1.0570000    1.000000000000

 H         

    103   S     236            33.8700000    0.025494863235
    103   S     237             5.0950000    0.190362765893
    103   S     238             1.1590000    0.852162022245

    104   S     239             0.3258000    1.000000000000

    105   S     240             0.1027000    1.000000000000

    106   P     241             1.4070000    1.000000000000

    107   P     242             0.3880000    1.000000000000

    108   D     243             1.0570000    1.000000000000

 H         

    109   S     244            33.8700000    0.025494863235
    109   S     245             5.0950000    0.190362765893
    109   S     246             1.1590000    0.852162022245

    110   S     247             0.3258000    1.000000000000

    111   S     248             0.1027000    1.000000000000

    112   P     249             1.4070000    1.000000000000

    113   P     250             0.3880000    1.000000000000

    114   D     251             1.0570000    1.000000000000

 TOTAL NUMBER OF BASIS SET SHELLS             =  114
 NUMBER OF CARTESIAN GAUSSIAN BASIS FUNCTIONS =  354
 NOTE: THIS RUN WILL RESTRICT THE MO VARIATION SPACE TO SPHERICAL HARMONICS.
 THE NUMBER OF ORBITALS KEPT IN THE VARIATIONAL SPACE WILL BE PRINTED LATER.
 NUMBER OF ELECTRONS                          =  104
 CHARGE OF MOLECULE                           =    3
 SPIN MULTIPLICITY                            =    1
 NUMBER OF OCCUPIED ORBITALS (ALPHA)          =   52
 NUMBER OF OCCUPIED ORBITALS (BETA )          =   52
 TOTAL NUMBER OF ATOMS                        =   15
 THE NUCLEAR REPULSION ENERGY IS      696.5306288747
 NOTE THIS RUN IS USING CORE POTENTIALS, AND THE NUMBER OF ELECTRONS,
 OCCUPIED ORBITALS, AND NUCLEAR REPULSION ENERGY WILL BE ADJUSTED BELOW
 AFTER REMOVAL OF THE CORE CHARGES.

     $CONTRL OPTIONS
     ---------------
 SCFTYP=RHF          RUNTYP=OPTIMIZE     EXETYP=RUN     
 MPLEVL=       2     CITYP =NONE         CCTYP =NONE         VBTYP =NONE    
 DFTTYP=NONE         TDDFT =NONE    
 MULT  =       1     ICHARG=       3     NZVAR =      39     COORD =UNIQUE  
 PP    =READ         RELWFN=NONE         LOCAL =NONE         NUMGRD=       F
 ISPHER=       1     NOSYM =       0     MAXIT =     200     UNITS =ANGS    
 PLTORB=       F     MOLPLT=       F     AIMPAC=       F     FRIEND=        
 NPRINT=       7     IREST =       0     GEOM  =INPUT   
 NORMF =       0     NORMP =       0     ITOL  =      20     ICUT  =      11
 INTTYP=BEST         GRDTYP=BEST         QMTTOL= 1.0E-06

     $SYSTEM OPTIONS
     ---------------
  REPLICATED MEMORY=   300000000 WORDS (ON EVERY NODE).
 DISTRIBUTED MEMDDI=         300 MILLION WORDS IN AGGREGATE,
 MEMDDI DISTRIBUTED OVER  16 PROCESSORS IS    18750000 WORDS/PROCESSOR.
 TOTAL MEMORY REQUESTED ON EACH PROCESSOR=   318750000 WORDS.
 TIMLIM=      525600.00 MINUTES, OR     365.0 DAYS.
 PARALL= T  BALTYP=  DLB     KDIAG=    0  COREFL= F
 MXSEQ2=     300 MXSEQ3=     150  mem10=         0

          --------------
          ECP POTENTIALS
          --------------

 PARAMETERS FOR "LA-ECP  " ON ATOM    1 WITH ZCORE  46 AND LMAX  4 ARE
 FOR L= 4      COEFF    N           ZETA
    1       -2.85665    1        1.42345
 FOR L= 0      COEFF    N           ZETA
    1        8.85347    0       22.29739
    2      -68.41778    2        1.64320
    3      110.12463    2        1.85122
 FOR L= 1      COEFF    N           ZETA
    1        2.98675    0        1.77635
    2      -35.51815    2        3.98941
    3       53.65423    2        2.47524
 FOR L= 2      COEFF    N           ZETA
    1        1.67298    0        1.52169
    2       18.46625    2        1.52182
 FOR L= 3      COEFF    N           ZETA
    1       -4.64430    1        2.67762
    2      -14.43101    1       10.06608

 THE ECP RUN REMOVES   46 CORE ELECTRONS, AND THE SAME NUMBER OF PROTONS.
 NUMBER OF ELECTRONS KEPT IN THE CALCULATION IS =   58
 NUMBER OF OCCUPIED ORBITALS (ALPHA) KEPT IS    =   29
 NUMBER OF OCCUPIED ORBITALS (BETA ) KEPT IS    =   29
 THE ADJUSTED NUCLEAR REPULSION ENERGY=      339.8175735562
          ECP ANGULAR INTS.........     0.03 SECONDS

          ----------------
          PROPERTIES INPUT
          ----------------

     MOMENTS            FIELD           POTENTIAL          DENSITY
 IEMOM =       1   IEFLD =       0   IEPOT =       0   IEDEN =       0
 WHERE =COMASS     WHERE =NUCLEI     WHERE =NUCLEI     WHERE =NUCLEI  
 OUTPUT=BOTH       OUTPUT=BOTH       OUTPUT=BOTH       OUTPUT=BOTH    
 IEMINT=       0   IEFINT=       0                     IEDINT=       0
                                                       MORB  =       0
          EXTRAPOLATION IN EFFECT
          SOSCF IN EFFECT
 ORBITAL PRINTING OPTION: NPREO=     1   354     2     1

     -------------------------------
     INTEGRAL TRANSFORMATION OPTIONS
     -------------------------------
     NWORD  =            0
     CUTOFF = 1.0E-09     MPTRAN =       0
     DIRTRF =       T     AOINTS =DUP     

          ----------------------
          INTEGRAL INPUT OPTIONS
          ----------------------
 NOPK  =       1 NORDER=       0 SCHWRZ=       T

          -----------------------
          MP2 CONTROL INFORMATION
          -----------------------
          NACORE =       13  NBCORE =       13
          LMOMP2 =        F  AOINTS = DUP     
          METHOD =        2  NWORD  =               0
          MP2PRP =        F  OSPT   = NONE    
          CUTOFF = 1.00E-09  CPHFBS = BASISAO 
          CODE   = DDI     

          NUMBER OF CORE -A-  ORBITALS =    13
          NUMBER OF CORE -B-  ORBITALS =    13
          NUMBER OF OCC. -A-  ORBITALS =    29
          NUMBER OF OCC. -B-  ORBITALS =    29
          NUMBER OF MOLECULAR ORBITALS =   354
          NUMBER OF   BASIS  FUNCTIONS =   354

 
 
 -----------------------------------------------
  STATISTICS ON AUTOMATIC COORDINATE GENERATION 
 -----------------------------------------------
  NUMBER OF USER SPECIFIED BONDS                              0
  NUMBER OF BONDS                                            14
  NUMBER OF ANGLES                                           25
  NUMBER OF TORSIONS                                         30
  NUMBER OF EXTRA COORD.                                      0
  NUMBER OF EXTRA COORD. FOR CONSTRAINTS                      0
  NUMBER OF CONSTRAINED COORD.                                1
 
  TOTAL NUMBER OF PRIMITIVES                                 69
 -----------------------------------------------

   --- ENCODED Z MATRIX ---
 COORD  TYPE   I   J   K   L   M   N
    1      1    1   3
    2      1    2   4
    3      1    2   3
    4      1    2   6
    5      1    2   5
    6      1    4   8
    7      1    4   7
    8      1    4   9
    9      1    5  12
   10      1    5  11
   11      1    5  10
   12      1    6  15
   13      1    6  14
   14      1    6  13
   15      2    1   3   2
   16      2    2   5  11
   17      2    2   4   8
   18      2    2   6  13
   19      2    2   6  14
   20      2    2   4   9
   21      2    2   5  12
   22      2    2   5  10
   23      2    2   4   7
   24      2    2   6  15
   25      2    3   2   4
   26      2    3   2   5
   27      2    3   2   6
   28      2    4   2   6
   29      2    4   2   5
   30      2    5   2   6
   31      2    7   4   9
   32      2    7   4   8
   33      2    8   4   9
   34      2   10   5  11
   35      2   10   5  12
   36      2   11   5  12
   37      2   13   6  14
   38      2   13   6  15
   39      2   14   6  15
   40      3    1   3   2   5
   41      3    1   3   2   4
   42      3    1   3   2   6
   43      3    3   2   4   8
   44      3    3   2   6  15
   45      3    3   2   6  14
   46      3    3   2   4   7
   47      3    3   2   5  10
   48      3    3   2   6  13
   49      3    3   2   5  11
   50      3    3   2   5  12
   51      3    3   2   4   9
   52      3    4   2   6  15
   53      3    4   2   6  14
   54      3    4   2   5  10
   55      3    4   2   6  13
   56      3    4   2   5  12
   57      3    4   2   5  11
   58      3    5   2   6  15
   59      3    5   2   6  14
   60      3    5   2   4   7
   61      3    5   2   6  13
   62      3    5   2   4   9
   63      3    5   2   4   8
   64      3    6   2   4   7
   65      3    6   2   5  10
   66      3    6   2   5  11
   67      3    6   2   5  12
   68      3    6   2   4   9
   69      3    6   2   4   8

          INDEP./SYM. INTERNAL COORDINATES
          --------------------------------
 CRD  1=   1.0000 (  1)
 CRD  2=   0.1354 ( 20)  0.1282 ( 22) -0.1112 ( 23)  0.1248 ( 24)  0.1506 ( 25)
           0.2024 ( 26) -0.3530 ( 27)  0.2880 ( 28) -0.5024 ( 29)  0.2144 ( 30)
           0.1915 ( 40) -0.2109 ( 41) -0.1134 ( 46)  0.1088 ( 50)  0.1272 ( 52)
           0.1653 ( 53)  0.1008 ( 55) -0.1431 ( 58) -0.1050 ( 59) -0.1695 ( 61)
          -0.1165 ( 65) -0.1538 ( 66)  0.1419 ( 69)
 CRD  3=  -0.2907 (  2)  0.2637 (  5)  0.4894 ( 15)  0.1855 ( 18) -0.1700 ( 19)
          -0.1598 ( 20)  0.1780 ( 22) -0.2594 ( 28)  0.2859 ( 30)  0.1307 ( 40)
          -0.2280 ( 42)  0.1946 ( 44)  0.1179 ( 45)  0.1190 ( 48) -0.1115 ( 49)
           0.1189 ( 64)  0.1118 ( 65)  0.1235 ( 67)  0.1061 ( 68)
 CRD  4=  -0.1729 (  2)  0.4054 (  4) -0.2324 (  5)  0.1502 ( 18)  0.1748 ( 19)
          -0.2141 ( 21) -0.2028 ( 23) -0.1181 ( 25) -0.1585 ( 26)  0.2765 ( 27)
          -0.1071 ( 29) -0.1312 ( 37)  0.1277 ( 40) -0.1412 ( 41)  0.2365 ( 43)
           0.1978 ( 46) -0.1486 ( 47) -0.2145 ( 49) -0.1854 ( 50)  0.1704 ( 51)
           0.1469 ( 54)  0.1101 ( 56) -0.1220 ( 60) -0.1494 ( 62)  0.1138 ( 65)
          -0.1248 ( 68)
 CRD  5=   0.3965 (  2)  0.3964 (  4)  0.3965 (  5)  0.2736 ( 16)  0.2736 ( 17)
           0.2736 ( 24) -0.1192 ( 32) -0.1193 ( 33) -0.1192 ( 34) -0.1191 ( 36)
          -0.1191 ( 38) -0.1192 ( 39)  0.1211 ( 54) -0.1211 ( 55)  0.1211 ( 59)
          -0.1211 ( 62)  0.1211 ( 64) -0.1211 ( 67)
 CRD  6=  -0.2466 (  2) -0.3433 (  3) -0.2465 (  4) -0.2460 (  5)  0.2310 ( 16)
           0.2313 ( 17) -0.2133 ( 18) -0.2126 ( 19) -0.2127 ( 20) -0.2133 ( 21)
          -0.2121 ( 22) -0.2137 ( 23)  0.2310 ( 24)  0.1638 ( 31)  0.1636 ( 35)
           0.1637 ( 37)  0.1289 ( 54) -0.1289 ( 55)  0.1288 ( 59) -0.1288 ( 62)
           0.1288 ( 64) -0.1288 ( 67)
 CRD  7=   0.3240 (  2) -0.2991 (  5) -0.1090 ( 13)  0.1089 ( 14) -0.2523 ( 16)
           0.2717 ( 17)  0.3962 ( 18) -0.4011 ( 19) -0.1576 ( 20) -0.2381 ( 21)
           0.2062 ( 22)  0.1937 ( 23) -0.1938 ( 32)  0.2005 ( 36) -0.1316 ( 38)
           0.1513 ( 39)
 CRD  8=  -0.1378 (  2)  0.3101 (  4) -0.1726 (  5) -0.1984 ( 16) -0.1555 ( 17)
          -0.3483 ( 20)  0.3485 ( 21) -0.3176 ( 22)  0.3705 ( 23)  0.3555 ( 24)
           0.1895 ( 33)  0.1967 ( 34) -0.1526 ( 38) -0.1338 ( 39)
 CRD  9=  -0.1305 (  2)  0.1187 (  5) -0.2860 ( 15) -0.4089 ( 16)  0.4503 ( 17)
           0.1117 ( 19) -0.2326 ( 20)  0.2973 ( 21)  0.1944 ( 22) -0.3090 ( 23)
           0.2262 ( 31) -0.2056 ( 35)
 CRD 10=  -0.3705 ( 18)  0.3709 ( 19) -0.3715 ( 20) -0.3695 ( 21)  0.3712 ( 22)
           0.3700 ( 23) -0.1316 ( 32)  0.1311 ( 33) -0.1306 ( 34)  0.1314 ( 36)
           0.1312 ( 38) -0.1312 ( 39)
 CRD 11=   0.1034 ( 11)  0.1417 ( 12) -0.2897 ( 16) -0.2154 ( 17) -0.2758 ( 18)
          -0.2376 ( 19)  0.3101 ( 20)  0.3290 ( 22)  0.5044 ( 24)  0.1028 ( 27)
           0.1209 ( 32) -0.1306 ( 35)  0.1285 ( 36)  0.2272 ( 37) -0.1087 ( 39)
 CRD 12=   0.7678 (  3)  0.1062 (  6)  0.1055 ( 10)  0.1058 ( 12)  0.2246 ( 16)
           0.2262 ( 17) -0.1098 ( 18) -0.1081 ( 19) -0.1087 ( 20) -0.1088 ( 21)
          -0.1087 ( 22) -0.1099 ( 23)  0.2253 ( 24)  0.1157 ( 31)  0.1153 ( 35)
           0.1154 ( 37)
 CRD 13=   0.1956 (  2) -0.1774 (  5)  0.1153 (  6) -0.1050 ( 10)  0.5230 ( 15)
          -0.1846 ( 16)  0.2027 ( 17) -0.2240 ( 18)  0.2221 ( 19)  0.1093 ( 20)
           0.1158 ( 21) -0.1404 ( 22)  0.1865 ( 25) -0.1695 ( 26) -0.1260 ( 28)
           0.1392 ( 30) -0.1563 ( 33)  0.1582 ( 34)  0.1364 ( 52)  0.1546 ( 53)
          -0.1065 ( 54)  0.1519 ( 55) -0.1329 ( 56) -0.1101 ( 57)  0.1299 ( 58)
           0.1480 ( 59) -0.1162 ( 60)  0.1454 ( 61)
 CRD 14=  -0.2088 ( 43) -0.2088 ( 44) -0.1810 ( 45) -0.1811 ( 46) -0.1810 ( 47)
          -0.1811 ( 48) -0.2087 ( 49) -0.1809 ( 50) -0.1811 ( 51) -0.2088 ( 52)
          -0.1810 ( 53) -0.1810 ( 54) -0.1811 ( 55) -0.1810 ( 56) -0.2088 ( 57)
          -0.2088 ( 58) -0.1810 ( 59) -0.1810 ( 60) -0.1811 ( 61) -0.1810 ( 62)
          -0.2087 ( 63) -0.1811 ( 64) -0.1810 ( 65) -0.2088 ( 66) -0.1809 ( 67)
          -0.1811 ( 68) -0.2087 ( 69)
 CRD 15=  -0.1224 (  7) -0.1486 (  9)  0.2044 ( 13)  0.1978 ( 14)  0.2642 ( 43)
           0.2449 ( 46) -0.2418 ( 47) -0.2398 ( 49) -0.2183 ( 50)  0.2624 ( 51)
          -0.1836 ( 54) -0.1600 ( 56) -0.1815 ( 57)  0.1826 ( 60)  0.2001 ( 62)
           0.2019 ( 63)  0.1909 ( 64) -0.1948 ( 65) -0.1928 ( 66) -0.1712 ( 67)
           0.2084 ( 68)  0.2103 ( 69)
 CRD 16=   0.4011 (  6)  0.3504 (  7)  0.3157 (  8) -0.3107 (  9) -0.3347 ( 10)
          -0.2484 ( 11) -0.1020 ( 13)  0.1041 ( 16) -0.1243 ( 17) -0.1773 ( 20)
           0.1107 ( 21)  0.1616 ( 22) -0.1478 ( 23)  0.1862 ( 31)  0.1243 ( 32)
           0.1413 ( 33) -0.1258 ( 34) -0.1560 ( 35)
 CRD 17=  -0.1572 (  6) -0.1721 (  8) -0.1701 (  9) -0.2717 ( 10) -0.2565 ( 11)
           0.4286 ( 12)  0.3260 ( 13)  0.3418 ( 14) -0.1614 ( 18) -0.1737 ( 19)
           0.1377 ( 21) -0.1247 ( 24) -0.1239 ( 35) -0.1024 ( 36)  0.1950 ( 37)
           0.1301 ( 38)  0.1371 ( 39) -0.1021 ( 60) -0.1061 ( 62)
 CRD 18=  -0.1007 (  2) -0.1008 (  4) -0.1007 (  5) -0.2692 (  6) -0.3024 (  7)
          -0.3023 (  8) -0.3026 (  9) -0.2691 ( 10) -0.3024 ( 11) -0.2695 ( 12)
          -0.3028 ( 13) -0.3027 ( 14)  0.1121 ( 16)  0.1121 ( 17)  0.1014 ( 18)
           0.1015 ( 19)  0.1013 ( 20)  0.1013 ( 21)  0.1014 ( 22)  0.1013 ( 23)
           0.1122 ( 24) -0.1067 ( 31) -0.1049 ( 32) -0.1050 ( 33) -0.1049 ( 34)
          -0.1069 ( 35) -0.1049 ( 36) -0.1070 ( 37) -0.1049 ( 38) -0.1050 ( 39)
 CRD 19=  -0.1601 (  2)  0.1451 (  5) -0.1698 (  7) -0.2863 (  8)  0.1282 (  9)
           0.2854 ( 11) -0.1160 ( 13)  0.1588 ( 14) -0.2524 ( 15) -0.1042 ( 43)
           0.2439 ( 44)  0.2255 ( 45) -0.1343 ( 47)  0.2267 ( 48) -0.1398 ( 49)
          -0.1247 ( 50) -0.1019 ( 51)  0.2056 ( 52)  0.1872 ( 53)  0.1884 ( 55)
          -0.1006 ( 57)  0.2093 ( 58)  0.1909 ( 59)  0.1921 ( 61) -0.1318 ( 65)
          -0.1373 ( 66) -0.1222 ( 67) -0.1066 ( 68) -0.1089 ( 69)
 CRD 20=   0.1947 (  6) -0.2721 (  8)  0.2735 ( 10) -0.2916 ( 11) -0.4788 ( 12)
           0.2078 ( 13)  0.2474 ( 14)  0.1500 ( 32) -0.1391 ( 35)  0.1609 ( 36)
           0.2435 ( 37) -0.1143 ( 38) -0.1358 ( 39) -0.1330 ( 45)  0.1295 ( 48)
          -0.1389 ( 53)  0.1236 ( 55) -0.1263 ( 59)  0.1361 ( 61)
 CRD 21=  -0.3989 (  6)  0.2842 (  7) -0.3086 (  9)  0.3614 ( 10) -0.2800 ( 13)
           0.2409 ( 14)  0.2066 ( 31) -0.1591 ( 33)  0.1708 ( 34) -0.1870 ( 35)
           0.1459 ( 38) -0.1230 ( 39)  0.1261 ( 44)  0.1102 ( 47)  0.1175 ( 51)
           0.1287 ( 52)  0.1053 ( 54)  0.1280 ( 58) -0.1047 ( 60)  0.1124 ( 62)
           0.1123 ( 65)  0.1207 ( 68)
 CRD 22=  -0.3848 (  6)  0.1857 (  7)  0.1662 (  8)  0.1603 (  9) -0.3812 ( 10)
           0.1878 ( 11) -0.3765 ( 12)  0.1811 ( 13)  0.1625 ( 14)  0.1956 ( 31)
          -0.1036 ( 33)  0.1937 ( 35) -0.1049 ( 36)  0.1913 ( 37) -0.1013 ( 38)
          -0.1015 ( 45) -0.1037 ( 46) -0.1022 ( 47)  0.1049 ( 48)  0.1067 ( 50)
           0.1073 ( 51) -0.1174 ( 54)  0.1202 ( 55) -0.1168 ( 59)  0.1224 ( 62)
          -0.1189 ( 64)  0.1220 ( 67)
 CRD 23=  -0.3132 (  7)  0.3283 (  8)  0.3220 (  9) -0.3125 ( 11) -0.3146 ( 13)
           0.3257 ( 14) -0.1765 ( 32)  0.1679 ( 33) -0.1729 ( 34)  0.1677 ( 36)
           0.1686 ( 38) -0.1748 ( 39)  0.1255 ( 43)  0.1256 ( 44)  0.1241 ( 49)
           0.1262 ( 52)  0.1236 ( 57)  0.1251 ( 58)  0.1260 ( 63)  0.1246 ( 66)
           0.1250 ( 69)
 CRD 24=  -0.4011 (  7)  0.3121 (  8) -0.3851 (  9)  0.1258 ( 10)  0.2606 ( 11)
          -0.2133 ( 12)  0.1431 ( 13) -0.1741 ( 32)  0.2284 ( 33)  0.2204 ( 34)
          -0.1438 ( 36)  0.1239 ( 37)  0.1147 ( 43)  0.1301 ( 47) -0.1042 ( 49)
          -0.1283 ( 51)  0.1448 ( 54) -0.1434 ( 62)  0.1383 ( 65) -0.1388 ( 68)
           0.1042 ( 69)
 CRD 25=   0.2560 (  6) -0.2273 (  8) -0.1166 (  9) -0.2294 ( 10)  0.2724 ( 11)
          -0.3274 ( 13)  0.3461 ( 14) -0.1566 ( 31)  0.1585 ( 32)  0.1404 ( 35)
          -0.1854 ( 36)  0.2057 ( 38) -0.2201 ( 39) -0.1426 ( 45)  0.1357 ( 46)
          -0.1263 ( 48)  0.1489 ( 50) -0.1582 ( 53) -0.1419 ( 55)  0.1498 ( 56)
          -0.1600 ( 59)  0.1331 ( 60) -0.1438 ( 61)  0.1522 ( 64)  0.1671 ( 67)
 CRD 26=   0.2246 (  4) -0.1288 (  5) -0.2383 (  7) -0.2614 (  9)  0.1289 ( 12)
           0.2562 ( 13)  0.2311 ( 14)  0.1715 ( 18)  0.1927 ( 19) -0.2079 ( 21)
          -0.1919 ( 23)  0.1177 ( 24) -0.1356 ( 27) -0.1036 ( 28)  0.1808 ( 29)
           0.1613 ( 32)  0.1318 ( 35)  0.1697 ( 36) -0.2304 ( 37) -0.1165 ( 38)
          -0.1363 ( 39) -0.1336 ( 40)  0.1479 ( 41) -0.1686 ( 43) -0.1098 ( 46)
           0.1532 ( 49)  0.1030 ( 50) -0.1310 ( 54) -0.1109 ( 56)  0.1160 ( 60)
           0.1309 ( 62)
 CRD 27=   0.4667 (  3) -0.2684 (  6) -0.2679 ( 10) -0.2681 ( 12) -0.1524 ( 16)
          -0.1528 ( 17) -0.1526 ( 24)  0.1599 ( 32)  0.1605 ( 33)  0.1599 ( 34)
           0.1596 ( 36)  0.1597 ( 38)  0.1603 ( 39) -0.1010 ( 52)  0.1758 ( 54)
          -0.1756 ( 55)  0.1008 ( 57)  0.1008 ( 58)  0.1759 ( 59) -0.1758 ( 62)
          -0.1007 ( 63)  0.1756 ( 64) -0.1011 ( 66) -0.1758 ( 67)  0.1010 ( 69)
 CRD 28=   0.1303 (  6)  0.1617 (  7)  0.2569 (  8) -0.1261 (  9) -0.1187 ( 10)
          -0.2539 ( 11) -0.1310 ( 14) -0.2400 ( 15) -0.1452 ( 16)  0.1596 ( 17)
           0.2140 ( 20) -0.1377 ( 21) -0.2052 ( 22)  0.1636 ( 23) -0.1666 ( 25)
           0.1509 ( 26) -0.2264 ( 31) -0.1193 ( 32) -0.1934 ( 33)  0.1918 ( 34)
           0.2054 ( 35)  0.1016 ( 38) -0.1208 ( 42) -0.1096 ( 43)  0.2569 ( 44)
           0.1841 ( 45) -0.1151 ( 47)  0.1856 ( 48) -0.1472 ( 49)
 CRD 29=   0.3201 (  2) -0.1840 (  3)  0.3202 (  4)  0.3197 (  5) -0.1796 (  7)
          -0.1793 (  8) -0.1796 (  9) -0.1792 ( 11) -0.1794 ( 13) -0.1796 ( 14)
          -0.1222 ( 16) -0.1224 ( 17) -0.1570 ( 18) -0.1569 ( 19) -0.1569 ( 20)
          -0.1568 ( 21) -0.1568 ( 22) -0.1569 ( 23) -0.1223 ( 24)  0.2242 ( 31)
           0.1057 ( 32)  0.1055 ( 33)  0.1052 ( 34)  0.2241 ( 35)  0.1055 ( 36)
           0.2242 ( 37)  0.1056 ( 38)  0.1055 ( 39)
 CRD 30=  -0.2357 (  2)  0.5522 (  4) -0.3168 (  5)  0.1659 (  8)  0.1101 ( 10)
           0.1770 ( 11) -0.1924 ( 12) -0.1317 ( 13) -0.1513 ( 14)  0.1037 ( 16)
          -0.1783 ( 18) -0.1747 ( 19)  0.1187 ( 22) -0.1809 ( 24) -0.1623 ( 33)
          -0.1829 ( 34)  0.1561 ( 37)  0.1991 ( 38)  0.1841 ( 39) -0.1095 ( 43)
 CRD 31=  -0.1876 (  3) -0.1767 (  6) -0.1765 ( 10) -0.1766 ( 12)  0.1279 ( 16)
           0.1278 ( 17)  0.1278 ( 24)  0.1001 ( 25) -0.1360 ( 31) -0.1359 ( 35)
          -0.1359 ( 37)  0.1285 ( 45)  0.1280 ( 46)  0.1283 ( 47) -0.1279 ( 48)
          -0.1281 ( 50) -0.1285 ( 51)  0.1326 ( 52)  0.2613 ( 53) -0.2611 ( 56)
          -0.1332 ( 57) -0.1331 ( 58)  0.2608 ( 60) -0.2609 ( 61)  0.1331 ( 63)
           0.2613 ( 65)  0.1326 ( 66) -0.2611 ( 68) -0.1324 ( 69)
 CRD 32=   0.4594 (  2) -0.4168 (  5) -0.1570 (  6) -0.1529 (  7)  0.1739 (  9)
           0.1424 ( 10)  0.1958 ( 13) -0.1820 ( 14) -0.1349 ( 15)  0.1030 ( 16)
          -0.1137 ( 17) -0.1130 ( 20)  0.1076 ( 21)  0.1016 ( 22) -0.1175 ( 23)
          -0.1026 ( 25)  0.1993 ( 32) -0.2077 ( 36)  0.1312 ( 38) -0.1568 ( 39)
          -0.1038 ( 43)  0.2433 ( 44) -0.1394 ( 49)  0.1051 ( 52)  0.1033 ( 58)
 CRD 33=   0.2306 (  7) -0.2309 (  8) -0.2310 (  9)  0.2314 ( 11)  0.2312 ( 13)
          -0.2308 ( 14) -0.1772 ( 32)  0.1769 ( 33) -0.1772 ( 34)  0.1775 ( 36)
           0.1774 ( 38) -0.1771 ( 39)  0.1514 ( 43)  0.1515 ( 44) -0.1131 ( 45)
          -0.1134 ( 46) -0.1132 ( 47) -0.1136 ( 48)  0.1516 ( 49) -0.1137 ( 50)
          -0.1130 ( 51)  0.1516 ( 52) -0.1130 ( 53) -0.1131 ( 54) -0.1135 ( 55)
          -0.1136 ( 56)  0.1517 ( 57)  0.1515 ( 58) -0.1131 ( 59) -0.1135 ( 60)
          -0.1136 ( 61) -0.1131 ( 62)  0.1513 ( 63) -0.1135 ( 64) -0.1131 ( 65)
           0.1517 ( 66) -0.1136 ( 67) -0.1131 ( 68)  0.1513 ( 69)
 CRD 34=   0.1357 (  6)  0.1013 (  7) -0.2213 (  8)  0.1612 ( 10) -0.2217 ( 11)
          -0.2962 ( 12)  0.1201 ( 13)  0.1418 ( 14)  0.1038 ( 20)  0.1036 ( 22)
           0.1018 ( 24)  0.1337 ( 29) -0.1799 ( 32)  0.1160 ( 35) -0.1825 ( 36)
          -0.2131 ( 37)  0.1163 ( 38)  0.1328 ( 39)  0.1848 ( 45) -0.1755 ( 46)
          -0.1729 ( 48)  0.1852 ( 50)  0.1488 ( 53) -0.2089 ( 55)  0.1691 ( 56)
          -0.1057 ( 57)  0.2208 ( 59) -0.1630 ( 60) -0.1370 ( 61)  0.1092 ( 63)
          -0.1954 ( 64)  0.2085 ( 67)
 CRD 35=  -0.2868 (  6)  0.1943 (  7) -0.1976 (  9)  0.2693 ( 10) -0.1516 ( 13)
           0.1356 ( 14) -0.1004 ( 28)  0.1063 ( 30) -0.2076 ( 31)  0.1709 ( 33)
          -0.1721 ( 34)  0.1947 ( 35) -0.1172 ( 38)  0.1022 ( 39)  0.1297 ( 46)
          -0.2152 ( 47)  0.1067 ( 48)  0.1108 ( 50) -0.2175 ( 51) -0.2481 ( 54)
           0.1189 ( 55)  0.1159 ( 61) -0.2508 ( 62)  0.1537 ( 64) -0.1942 ( 65)
           0.1318 ( 67) -0.1935 ( 68)
 CRD 36=   0.1680 (  4)  0.2427 (  7) -0.1514 (  8)  0.2398 (  9) -0.1027 ( 10)
          -0.1177 ( 11)  0.1802 ( 12) -0.1248 ( 13)  0.1071 ( 20) -0.1187 ( 21)
          -0.1261 ( 23) -0.1070 ( 24)  0.1350 ( 29) -0.1231 ( 32)  0.1740 ( 33)
           0.1689 ( 34) -0.1006 ( 36)  0.1664 ( 37)  0.1064 ( 41)  0.1142 ( 43)
          -0.1120 ( 45)  0.1870 ( 47)  0.1350 ( 48) -0.1033 ( 49) -0.1810 ( 51)
          -0.1610 ( 53) -0.1011 ( 56) -0.2507 ( 57)  0.1586 ( 61)  0.2690 ( 63)
          -0.2093 ( 66)  0.2380 ( 69)
 CRD 37=  -0.2306 (  2)  0.2096 (  5) -0.1112 (  6)  0.1653 (  8)  0.1010 ( 10)
          -0.1867 ( 11)  0.1926 ( 13) -0.2069 ( 14)  0.1435 ( 18) -0.1423 ( 19)
           0.1194 ( 25) -0.1082 ( 26)  0.1371 ( 28) -0.1511 ( 30) -0.1215 ( 31)
           0.1104 ( 35) -0.1122 ( 36)  0.1481 ( 38) -0.1529 ( 39)  0.1516 ( 42)
          -0.2091 ( 45)  0.1706 ( 46) -0.1942 ( 48)  0.1921 ( 50)  0.2687 ( 52)
           0.1060 ( 56) -0.1188 ( 57)  0.2759 ( 58)  0.1195 ( 60) -0.1211 ( 65)
          -0.1924 ( 66) -0.1309 ( 68) -0.1572 ( 69)
 CRD 38=  -0.4956 ( 15)  0.3250 ( 25) -0.2948 ( 26) -0.3303 ( 28)  0.3645 ( 30)
          -0.1626 ( 42) -0.1393 ( 45)  0.1082 ( 47) -0.1447 ( 48) -0.1411 ( 56)
          -0.1402 ( 57) -0.1468 ( 60) -0.1364 ( 63)  0.1087 ( 68)
 CRD 39=   0.5775 ( 40)  0.5772 ( 41)  0.5774 ( 42)

 THE DETERMINANT OF THE G MATRIX IS 10**(   -13)


                     --------------------
                     INTERNAL COORDINATES
                     --------------------

                 - - ATOMS - -         COORDINATE      COORDINATE
 NO.   TYPE    I  J  K  L  M  N        (BOHR,RAD)       (ANG,DEG)
 ----------------------------------------------------------------
   1 STRETCH   1  3                     3.4015068       1.8000000
   2 STRETCH   2  4                     3.3538460       1.7747790
   3 STRETCH   2  3                     3.3196218       1.7566683
   4 STRETCH   2  6                     3.3539733       1.7748464
   5 STRETCH   2  5                     3.3538992       1.7748072
   6 STRETCH   4  8                     2.0679643       1.0943196
   7 STRETCH   4  7                     2.0574453       1.0887532
   8 STRETCH   4  9                     2.0572881       1.0886701
   9 STRETCH   5 12                     2.0573449       1.0887001
  10 STRETCH   5 11                     2.0679960       1.0943364
  11 STRETCH   5 10                     2.0573635       1.0887099
  12 STRETCH   6 15                     2.0678311       1.0942492
  13 STRETCH   6 14                     2.0574193       1.0887395
  14 STRETCH   6 13                     2.0574658       1.0887641
  15 BEND      1  3  2                  3.1407285     179.9504864
  16 BEND      2  5 11                  1.8647629     106.8430437
  17 BEND      2  4  8                  1.8654887     106.8846315
  18 BEND      2  6 13                  1.9363405     110.9441357
  19 BEND      2  6 14                  1.9367673     110.9685932
  20 BEND      2  4  9                  1.9363663     110.9456164
  21 BEND      2  5 12                  1.9367468     110.9674169
  22 BEND      2  5 10                  1.9366586     110.9623649
  23 BEND      2  4  7                  1.9362777     110.9405404
  24 BEND      2  6 15                  1.8648449     106.8477426
  25 BEND      3  2  4                  1.8625915     106.7186329
  26 BEND      3  2  5                  1.8629232     106.7376352
  27 BEND      3  2  6                  1.8629692     106.7402727
  28 BEND      4  2  6                  1.9560829     112.0752918
  29 BEND      4  2  5                  1.9558860     112.0640120
  30 BEND      5  2  6                  1.9557846     112.0582053
  31 BEND      7  4  9                  1.9373963     111.0046285
  32 BEND      7  4  8                  1.8926647     108.4417006
  33 BEND      8  4  9                  1.8931684     108.4705596
  34 BEND     10  5 11                  1.8926604     108.4414529
  35 BEND     10  5 12                  1.9375674     111.0144323
  36 BEND     11  5 12                  1.8929064     108.4555452
  37 BEND     13  6 14                  1.9376724     111.0204481
  38 BEND     13  6 15                  1.8928290     108.4511126
  39 BEND     14  6 15                  1.8928573     108.4527372
  40 TORSION   1  3  2  5               0.6078242      34.8257609
  41 TORSION   1  3  2  4               2.7021086     154.8194185
  42 TORSION   1  3  2  6              -1.4865386     -85.1723901
  43 TORSION   3  2  4  8              -3.1397635    -179.8951976
  44 TORSION   3  2  6 15               3.1406228     179.9444323
  45 TORSION   3  2  6 14              -1.0822197     -62.0066193
  46 TORSION   3  2  4  7              -1.0795371     -61.8529181
  47 TORSION   3  2  5 10              -1.0836507     -62.0886112
  48 TORSION   3  2  6 13               1.0805476      61.9108182
  49 TORSION   3  2  5 11               3.1395369     179.8822159
  50 TORSION   3  2  5 12               1.0791952      61.8333328
  51 TORSION   3  2  4  9               1.0825410      62.0250294
  52 TORSION   4  2  6 15              -1.1093065     -63.5585802
  53 TORSION   4  2  6 14               0.9510363      54.4903681
  54 TORSION   4  2  5 10              -3.1167730    -178.5779384
  55 TORSION   4  2  6 13               3.1138036     178.4078057
  56 TORSION   4  2  5 12              -0.9539271     -54.6559945
  57 TORSION   4  2  5 11               1.1064146      63.3928887
  58 TORSION   5  2  6 15               1.1071274      63.4337280
  59 TORSION   5  2  6 14              -3.1157151    -178.5173236
  60 TORSION   5  2  4  7               0.9537852      54.6478664
  61 TORSION   5  2  6 13              -0.9529478     -54.5998861
  62 TORSION   5  2  4  9               3.1158633     178.5258139
  63 TORSION   5  2  4  8              -1.1064412     -63.3944130
  64 TORSION   6  2  4  7              -3.1130207    -178.3629494
  65 TORSION   6  2  5 10               0.9498725      54.4236833
  66 TORSION   6  2  5 11              -1.1101252     -63.6054896
  67 TORSION   6  2  5 12               3.1127184     178.3456273
  68 TORSION   6  2  4  9              -0.9509427     -54.4850018
  69 TORSION   6  2  4  8               1.1099381      63.5947712

     ------------------------------------------
     THE POINT GROUP IS C1 , NAXIS= 0, ORDER= 1
     ------------------------------------------

 -- VARIATIONAL SPACE WILL BE RESTRICTED TO PURE SPHERICAL HARMONICS ONLY --
 AFTER EXCLUDING CONTAMINANT COMBINATIONS FROM THE CARTESIAN GAUSSIAN BASIS
 SET, THE NUMBER OF SPHERICAL HARMONICS KEPT IN THE VARIATION SPACE IS  316

     DIMENSIONS OF THE SYMMETRY SUBSPACES ARE
 A   =  316

 ..... DONE SETTING UP THE RUN .....
 CPU     0: STEP CPU TIME=     0.09 TOTAL CPU TIME=        0.1 (    0.0 MIN)
 TOTAL WALL CLOCK TIME=        0.2 SECONDS, CPU UTILIZATION IS  56.25%


          -----------------------------
          STATIONARY POINT LOCATION RUN
          -----------------------------


           ** GEOMETRY CONSTRAINTS ARE BEING APPLIED. **

          TRANSFORMING DISPLACEMENT FROM INTERNALS TO CARTESIANS
          THE ROOT MEAN SQUARE ERROR IN ITERATION   1 IS   0.00000000
 WARNING! THE RADIUS IN CARTESIANS IS    0.00000
 OBTAINING INITIAL HESSIAN, HESS=GUESS   
 DIAGONAL GUESS HESSIAN IN INTERNAL COORDS IS
     1  1.0490     2  0.4333     3  0.3624     4  0.4333     5  0.4333
     6  0.3435     7  0.3472     8  0.3473     9  0.3472    10  0.3435
    11  0.3472    12  0.3435    13  0.3472    14  0.3472    15  0.3437
    16  0.2409    17  0.2409    18  0.2412    19  0.2412    20  0.2412
    21  0.2412    22  0.2412    23  0.2412    24  0.2409    25  0.2785
    26  0.2785    27  0.2785    28  0.2914    29  0.2914    30  0.2914
    31  0.2035    32  0.2032    33  0.2033    34  0.2032    35  0.2035
    36  0.2032    37  0.2035    38  0.2032    39  0.2033    40  0.2500
    41  0.2500    42  0.2500    43  0.2500    44  0.2500    45  0.2500
    46  0.2500    47  0.2500    48  0.2500    49  0.2500    50  0.2500
    51  0.2500    52  0.2500    53  0.2500    54  0.2500    55  0.2500
    56  0.2500    57  0.2500    58  0.2500    59  0.2500    60  0.2500
    61  0.2500    62  0.2500    63  0.2500    64  0.2500    65  0.2500
    66  0.2500    67  0.2500    68  0.2500    69  0.2500
 TRANSFORMING HESSIAN TO SYMMETRY COORDINATES

          PARAMETERS CONTROLLING GEOMETRY SEARCH ARE
          METHOD =QA                  UPHESS =BFGS    
          NNEG   =         0          NFRZ   =         0
          NSTEP  =        50          IFOLOW =         1
          HESS   =GUESS               RESTAR =         F
          IHREP  =         0          HSSEND =         F
          NPRT   =         0          NPUN   =         0
          OPTTOL = 1.000E-04          RMIN   = 1.500E-03
          RMAX   = 1.000E-01          RLIM   = 7.000E-02
          DXMAX  = 3.000E-01          PURIFY =         F
          MOVIE  =         F          TRUPD  =         T
          TRMAX  = 5.000E-01          TRMIN  = 5.000E-02
          ITBMAT =         5          STPT   =         F
          STSTEP = 1.000E-02          PROJCT=          T

 BEGINNING GEOMETRY SEARCH POINT NSERCH=   0 ...

 COORDINATES OF ALL ATOMS ARE (ANGS)
   ATOM   CHARGE       X              Y              Z
 ------------------------------------------------------------
 LA         57.0  -0.1739353441   1.1341682690  -4.0490164368
 P          15.0  -0.0503340748   0.3563306087  -0.5806481421
 O           8.0  -0.1121465978   0.7405715286  -2.2936635501
 C           6.0  -1.4998259709   1.0687863725   0.1550287333
 C           6.0   1.4421928810   1.0790752420   0.0517630455
 C           6.0  -0.0394040954  -1.4139494392  -0.4538853889
 H           1.0  -1.5015746377   2.1516194435   0.0416573353
 H           1.0  -1.4630933746   0.8325835949   1.2229212572
 H           1.0  -2.4042205597   0.6310812385  -0.2641217817
 H           1.0   2.3182613696   0.6471081398  -0.4290672363
 H           1.0   1.4813786803   0.8425133709   1.1195060694
 H           1.0   1.4289557398   2.1618289168  -0.0610959572
 H           1.0   0.8427864043  -1.8331407844  -0.9349526944
 H           1.0  -0.9507855971  -1.8399959272  -0.8700845936
 H           1.0   0.0001060933  -1.6552962637   0.6126847650


                     --------------------
                     INTERNAL COORDINATES
                     --------------------

                 - - ATOMS - -         COORDINATE      COORDINATE
 NO.   TYPE    I  J  K  L  M  N        (BOHR,RAD)       (ANG,DEG)
 ----------------------------------------------------------------
   1 STRETCH   1  3                     3.4015068       1.8000000
   2 STRETCH   2  4                     3.3538460       1.7747790
   3 STRETCH   2  3                     3.3196218       1.7566683
   4 STRETCH   2  6                     3.3539733       1.7748464
   5 STRETCH   2  5                     3.3538992       1.7748072
   6 STRETCH   4  8                     2.0679643       1.0943196
   7 STRETCH   4  7                     2.0574453       1.0887532
   8 STRETCH   4  9                     2.0572881       1.0886701
   9 STRETCH   5 12                     2.0573449       1.0887001
  10 STRETCH   5 11                     2.0679960       1.0943364
  11 STRETCH   5 10                     2.0573635       1.0887099
  12 STRETCH   6 15                     2.0678311       1.0942492
  13 STRETCH   6 14                     2.0574193       1.0887395
  14 STRETCH   6 13                     2.0574658       1.0887641
  15 BEND      1  3  2                  3.1407285     179.9504864
  16 BEND      2  5 11                  1.8647629     106.8430437
  17 BEND      2  4  8                  1.8654887     106.8846315
  18 BEND      2  6 13                  1.9363405     110.9441357
  19 BEND      2  6 14                  1.9367673     110.9685932
  20 BEND      2  4  9                  1.9363663     110.9456164
  21 BEND      2  5 12                  1.9367468     110.9674169
  22 BEND      2  5 10                  1.9366586     110.9623649
  23 BEND      2  4  7                  1.9362777     110.9405404
  24 BEND      2  6 15                  1.8648449     106.8477426
  25 BEND      3  2  4                  1.8625915     106.7186329
  26 BEND      3  2  5                  1.8629232     106.7376352
  27 BEND      3  2  6                  1.8629692     106.7402727
  28 BEND      4  2  6                  1.9560829     112.0752918
  29 BEND      4  2  5                  1.9558860     112.0640120
  30 BEND      5  2  6                  1.9557846     112.0582053
  31 BEND      7  4  9                  1.9373963     111.0046285
  32 BEND      7  4  8                  1.8926647     108.4417006
  33 BEND      8  4  9                  1.8931684     108.4705596
  34 BEND     10  5 11                  1.8926604     108.4414529
  35 BEND     10  5 12                  1.9375674     111.0144323
  36 BEND     11  5 12                  1.8929064     108.4555452
  37 BEND     13  6 14                  1.9376724     111.0204481
  38 BEND     13  6 15                  1.8928290     108.4511126
  39 BEND     14  6 15                  1.8928573     108.4527372
  40 TORSION   1  3  2  5               0.6078242      34.8257609
  41 TORSION   1  3  2  4               2.7021086     154.8194185
  42 TORSION   1  3  2  6              -1.4865386     -85.1723901
  43 TORSION   3  2  4  8              -3.1397635    -179.8951976
  44 TORSION   3  2  6 15               3.1406228     179.9444323
  45 TORSION   3  2  6 14              -1.0822197     -62.0066193
  46 TORSION   3  2  4  7              -1.0795371     -61.8529181
  47 TORSION   3  2  5 10              -1.0836507     -62.0886112
  48 TORSION   3  2  6 13               1.0805476      61.9108182
  49 TORSION   3  2  5 11               3.1395369     179.8822159
  50 TORSION   3  2  5 12               1.0791952      61.8333328
  51 TORSION   3  2  4  9               1.0825410      62.0250294
  52 TORSION   4  2  6 15              -1.1093065     -63.5585802
  53 TORSION   4  2  6 14               0.9510363      54.4903681
  54 TORSION   4  2  5 10              -3.1167730    -178.5779384
  55 TORSION   4  2  6 13               3.1138036     178.4078057
  56 TORSION   4  2  5 12              -0.9539271     -54.6559945
  57 TORSION   4  2  5 11               1.1064146      63.3928887
  58 TORSION   5  2  6 15               1.1071274      63.4337280
  59 TORSION   5  2  6 14              -3.1157151    -178.5173236
  60 TORSION   5  2  4  7               0.9537852      54.6478664
  61 TORSION   5  2  6 13              -0.9529478     -54.5998861
  62 TORSION   5  2  4  9               3.1158633     178.5258139
  63 TORSION   5  2  4  8              -1.1064412     -63.3944130
  64 TORSION   6  2  4  7              -3.1130207    -178.3629494
  65 TORSION   6  2  5 10               0.9498725      54.4236833
  66 TORSION   6  2  5 11              -1.1101252     -63.6054896
  67 TORSION   6  2  5 12               3.1127184     178.3456273
  68 TORSION   6  2  4  9              -0.9509427     -54.4850018
  69 TORSION   6  2  4  8               1.1099381      63.5947712

          ********************
          1 ELECTRON INTEGRALS
          ********************
 TIME TO DO ORDINARY INTEGRALS=      0.02
 TIME TO DO      ECP INTEGRALS=      0.06
 ...... END OF ONE-ELECTRON INTEGRALS ......
 CPU     0: STEP CPU TIME=     0.08 TOTAL CPU TIME=        0.2 (    0.0 MIN)
 TOTAL WALL CLOCK TIME=        0.3 SECONDS, CPU UTILIZATION IS  54.84%

          -------------
          GUESS OPTIONS
          -------------
          GUESS =HUCKEL            NORB  =       0          NORDER=       0
          MIX   =       F          PRTMO =       F          PUNMO =       F
          TOLZ  = 1.0E-08          TOLE  = 1.0E-05
          SYMDEN=       F          PURIFY=       F

 INITIAL GUESS ORBITALS GENERATED BY HUCKEL   ROUTINE.
 HUCKEL GUESS REQUIRES    916545 WORDS.

 STATISTICS FOR GENERATION OF SYMMETRY ORBITAL -Q- MATRIX
 NUMBER OF CARTESIAN ATOMIC ORBITALS=        354
 NUMBER OF SPHERICAL CONTAMINANTS DROPPED=    38
 NUMBER OF LINEARLY DEPENDENT MOS DROPPED=     0
 TOTAL NUMBER OF MOS IN VARIATION SPACE=     316

 SYMMETRIES FOR INITIAL GUESS ORBITALS FOLLOW.   BOTH SET(S).
    29 ORBITALS ARE OCCUPIED (   13 CORE ORBITALS).
    14=A       15=A       16=A       17=A       18=A       19=A       20=A   
    21=A       22=A       23=A       24=A       25=A       26=A       27=A   
    28=A       29=A       30=A       31=A       32=A       33=A       34=A   
    35=A       36=A       37=A       38=A       39=A   
 ...... END OF INITIAL ORBITAL SELECTION ......
 CPU     0: STEP CPU TIME=     0.21 TOTAL CPU TIME=        0.4 (    0.0 MIN)
 TOTAL WALL CLOCK TIME=        0.8 SECONDS, CPU UTILIZATION IS  47.50%

                    ----------------------
                    AO INTEGRAL TECHNOLOGY
                    ----------------------
     S,P,L SHELL ROTATED AXIS INTEGRALS, REPROGRAMMED BY
        KAZUYA ISHIMURA (IMS) AND JOSE SIERRA (SYNSTAR).
     S,P,D,L SHELL ROTATED AXIS INTEGRALS PROGRAMMED BY
        KAZUYA ISHIMURA (INSTITUTE FOR MOLECULAR SCIENCE).
     S,P,D,F,G SHELL TO TOTAL QUARTET ANGULAR MOMENTUM SUM 5,
        ERIC PROGRAM BY GRAHAM FLETCHER (ELORET AND NASA ADVANCED
        SUPERCOMPUTING DIVISION, AMES RESEARCH CENTER).
     S,P,D,F,G,L SHELL GENERAL RYS QUADRATURE PROGRAMMED BY
        MICHEL DUPUIS (PACIFIC NORTHWEST NATIONAL LABORATORY).

          --------------------
          2 ELECTRON INTEGRALS
          --------------------

 DIRECT SCF METHOD SKIPS INTEGRAL STORAGE ON DISK.
 DIRECT TRANSFORMATION SKIPS AO INTEGRAL STORAGE ON DISK.
  ...... END OF TWO-ELECTRON INTEGRALS .....
 CPU     0: STEP CPU TIME=     0.03 TOTAL CPU TIME=        0.4 (    0.0 MIN)
 TOTAL WALL CLOCK TIME=        0.8 SECONDS, CPU UTILIZATION IS  49.40%

          --------------------------
                 RHF SCF CALCULATION
          --------------------------

     NUCLEAR ENERGY =       339.8175735562
     MAXIT =  200     NPUNCH=    2
     EXTRAP=T  DAMP=F  SHIFT=F  RSTRCT=F  DIIS=F  DEM=F  SOSCF=T
     DENSITY MATRIX CONV=  2.00E-06
     SOSCF WILL OPTIMIZE    8323 ORBITAL ROTATIONS, SOGTOL=   0.250
     MEMORY REQUIRED FOR RHF ITERS=    982670 WORDS.

 DIRECT SCF CALCULATION, SCHWRZ=T   FDIFF=F,  DIRTHR=  0.00E+00 NITDIR=10
 SCHWARZ INEQUALITY OVERHEAD:     62238 INTEGRALS, T=        0.00

                                                                                   NONZERO     BLOCKS
 ITER EX DEM     TOTAL ENERGY        E CHANGE  DENSITY CHANGE     ORB. GRAD      INTEGRALS    SKIPPED
   1  0  0     -563.1471353834  -563.1471353834   0.398988523   0.000000000     1468982580    4122637
          ---------------START SECOND ORDER SCF---------------
   2  1  0     -564.3297113619    -1.1825759785   0.273714489   0.125171775     1458730446    4399943
   3  2  0     -564.4937795742    -0.1640682123   0.120610064   0.094179258     1457590862    4429860
   4  3  0     -564.6683404017    -0.1745608275   0.024766094   0.020126404     1457916143    4414363
   5  4  0     -564.6724162724    -0.0040758707   0.011775935   0.006663591     1458186999    4406903
   6  5  0     -564.6733254914    -0.0009092190   0.004547984   0.002334258     1457998878    4409002
   7  6  0     -564.6734285604    -0.0001030691   0.001955777   0.000675771     1457891762    4409896
   8  7  0     -564.6734433837    -0.0000148233   0.000481099   0.000212697     1457878825    4409986
   9  8  0     -564.6734457053    -0.0000023216   0.000306443   0.000110235     1457887411    4409962
  10  9  0     -564.6734460576    -0.0000003523   0.000125175   0.000039565     1457892784    4409953
  11 10  0     -564.6734461006    -0.0000000430   0.000033677   0.000013200     1457891057    4409946
  12 11  0     -564.6734461059    -0.0000000054   0.000011138   0.000002878     1457890232    4409951
  13 12  0     -564.6734461065    -0.0000000006   0.000005257   0.000000943     1457890336    4409943
  14 13  0     -564.6734461066    -0.0000000001   0.000001835   0.000000253     1457890706    4409940
  15 14  0     -564.6734461066     0.0000000000   0.000000578   0.000000140     1457890638    4409941

          -----------------
          DENSITY CONVERGED
          -----------------
     TIME TO FORM FOCK OPERATORS=      98.9 SECONDS (       6.6 SEC/ITER)
     FOCK TIME ON FIRST ITERATION=       6.8, LAST ITERATION=       6.6
     TIME TO SOLVE SCF EQUATIONS=       0.5 SECONDS (       0.0 SEC/ITER)

 FINAL RHF ENERGY IS     -564.6734461066 AFTER  15 ITERATIONS

          ------------
          EIGENVECTORS
          ------------

                      1          2          3          4          5
                  -80.5104   -21.0931   -11.6621   -11.6620   -11.6620
                     A          A          A          A          A   
    1  LA 1  S    0.000004   0.000026   0.000001   0.000004   0.000005
    2  LA 1  X    0.000000   0.000002  -0.000011  -0.000011   0.000010
    3  LA 1  Y   -0.000001  -0.000014  -0.000015   0.000009  -0.000007
    4  LA 1  Z    0.000003   0.000063  -0.000002   0.000007   0.000005
    5  LA 1 XX    0.000005  -0.000044   0.000013  -0.000006   0.000005
    6  LA 1 YY    0.000004  -0.000038  -0.000016   0.000012  -0.000005
    7  LA 1 ZZ   -0.000008   0.000083   0.000004  -0.000006  -0.000000
    8  LA 1 XY    0.000000  -0.000001   0.000008   0.000007  -0.000007
    9  LA 1 XZ   -0.000001   0.000005   0.000013   0.000013  -0.000012
   10  LA 1 YZ    0.000003  -0.000033   0.000010  -0.000006   0.000005
   11  LA 1 XX    0.000001   0.000113  -0.000019   0.000045   0.000029
   12  LA 1 YY    0.000001   0.000097   0.000034   0.000006   0.000043
   13  LA 1 ZZ   -0.000002  -0.000210  -0.000015  -0.000050  -0.000072
   14  LA 1 XY    0.000000   0.000003  -0.000018  -0.000016   0.000017
   15  LA 1 XZ   -0.000000  -0.000013  -0.000018  -0.000022   0.000013
   16  LA 1 YZ    0.000001   0.000084  -0.000006   0.000030   0.000023
   17  LA 1  S   -0.000012  -0.000190  -0.000028  -0.000153  -0.000191
   18  LA 1  X    0.000000  -0.000005  -0.000020  -0.000020   0.000016
   19  LA 1  Y   -0.000001   0.000030  -0.000024   0.000025   0.000001
   20  LA 1  Z    0.000002  -0.000135  -0.000011  -0.000031  -0.000047
   21  LA 1  S    0.000006   0.000069   0.000046   0.000247   0.000309
   22  LA 1  X   -0.000000   0.000002   0.000043   0.000047  -0.000030
   23  LA 1  Y    0.000000  -0.000012   0.000046  -0.000079  -0.000033
   24  LA 1  Z   -0.000001   0.000054   0.000046   0.000182   0.000246
   25  LA 1  S   -0.000038  -0.000141  -0.000008  -0.000045  -0.000057
   26  LA 1  X   -0.000001  -0.000008   0.000022   0.000020  -0.000023
   27  LA 1  Y    0.000008   0.000051   0.000031  -0.000006   0.000028
   28  LA 1  Z   -0.000036  -0.000227  -0.000005  -0.000065  -0.000071
   29  LA 1 XX   -0.000001  -0.000025   0.000012  -0.000067  -0.000064
   30  LA 1 YY   -0.000001  -0.000021  -0.000045  -0.000024  -0.000074
   31  LA 1 ZZ    0.000001   0.000046   0.000033   0.000091   0.000138
   32  LA 1 XY   -0.000000  -0.000001   0.000011   0.000007  -0.000010
   33  LA 1 XZ    0.000000   0.000003   0.000038   0.000043  -0.000026
   34  LA 1 YZ   -0.000001  -0.000018   0.000029  -0.000066  -0.000038
   35  P  2  S    1.000137   0.000077   0.000018   0.000095   0.000119
   36  P  2  S    0.000172   0.000474   0.000125   0.000670   0.000838
   37  P  2  S    0.000187   0.000616   0.000192   0.001028   0.001286
   38  P  2  S   -0.000944  -0.000209  -0.000065  -0.000349  -0.000437
   39  P  2  S   -0.000342  -0.002358   0.000056   0.000293   0.000366
   40  P  2  X   -0.000003  -0.000005   0.000395   0.000381  -0.000352
   41  P  2  Y    0.000022   0.000030   0.000499  -0.000371   0.000150
   42  P  2  Z   -0.000096  -0.000133   0.000128   0.000067   0.000251
   43  P  2  X   -0.000003  -0.000013   0.001025   0.000989  -0.000914
   44  P  2  Y    0.000020   0.000079   0.001294  -0.000959   0.000394
   45  P  2  Z   -0.000090  -0.000354   0.000329   0.000156   0.000629
   46  P  2  X    0.000002   0.000005  -0.000057  -0.000055   0.000050
   47  P  2  Y   -0.000011  -0.000031  -0.000071   0.000056  -0.000018
   48  P  2  Z    0.000050   0.000140  -0.000020  -0.000021  -0.000050
   49  P  2  X   -0.000003   0.000043   0.000046   0.000055  -0.000028
   50  P  2  Y    0.000020  -0.000272   0.000046  -0.000105  -0.000061
   51  P  2  Z   -0.000089   0.001205   0.000069   0.000290   0.000381
   52  P  2 XX   -0.000004  -0.000066   0.000212  -0.000088   0.000119
   53  P  2 YY   -0.000003  -0.000057  -0.000223   0.000189  -0.000048
   54  P  2 ZZ    0.000008   0.000124   0.000011  -0.000101  -0.000071
   55  P  2 XY   -0.000000  -0.000002   0.000155   0.000144  -0.000136
   56  P  2 XZ    0.000000   0.000008   0.000114   0.000117  -0.000120
   57  P  2 YZ   -0.000003  -0.000049   0.000054  -0.000011   0.000061
   58  P  2 XX   -0.000031  -0.000097   0.000370  -0.000002   0.000335
   59  P  2 YY   -0.000026  -0.000083  -0.000422   0.000466   0.000025
   60  P  2 ZZ    0.000057   0.000180   0.000052  -0.000463  -0.000360
   61  P  2 XY   -0.000001  -0.000003   0.000213   0.000187  -0.000171
   62  P  2 XZ    0.000004   0.000012   0.000358   0.000340  -0.000371
   63  P  2 YZ   -0.000023  -0.000072   0.000322  -0.000069   0.000295
   64  P  2 XXX   0.000001   0.000012   0.000033   0.000032  -0.000021
   65  P  2 YYY  -0.000005   0.000019   0.000026  -0.000103  -0.000079
   66  P  2 ZZZ  -0.000014  -0.000217  -0.000044  -0.000036  -0.000096
   67  P  2 XXY  -0.000002  -0.000173   0.000027   0.000059   0.000084
   68  P  2 XXZ   0.000011   0.000136   0.000033   0.000043   0.000095
   69  P  2 YYX   0.000000   0.000004   0.000004   0.000004  -0.000001
   70  P  2 YYZ   0.000008   0.000156   0.000025   0.000006   0.000034
   71  P  2 ZZX  -0.000001  -0.000020  -0.000048  -0.000048   0.000029
   72  P  2 ZZY   0.000009   0.000147  -0.000062   0.000079   0.000022
   73  P  2 XYZ   0.000000   0.000013   0.000031   0.000034  -0.000034
   74  P  2 XX    0.000001   0.000023  -0.000007   0.000005  -0.000002
   75  P  2 YY    0.000001   0.000020   0.000007  -0.000005   0.000003
   76  P  2 ZZ   -0.000002  -0.000044  -0.000001  -0.000000  -0.000001
   77  P  2 XY    0.000000   0.000001  -0.000005  -0.000005   0.000005
   78  P  2 XZ   -0.000000  -0.000003  -0.000003  -0.000003   0.000003
   79  P  2 YZ    0.000001   0.000017  -0.000001   0.000001  -0.000000
   80  O  3  S    0.000000   0.975534   0.000005   0.000026   0.000033
   81  O  3  S    0.000000  -0.001066   0.000007   0.000038   0.000047
   82  O  3  S    0.000005   0.043578  -0.000002  -0.000012  -0.000016
   83  O  3  S   -0.000071   0.004743   0.000035   0.000182   0.000227
   84  O  3  X    0.000000   0.000016  -0.000006  -0.000006   0.000004
   85  O  3  Y   -0.000000  -0.000099  -0.000007   0.000008   0.000001
   86  O  3  Z    0.000001   0.000441  -0.000004  -0.000012  -0.000018
   87  O  3  X   -0.000000  -0.000024   0.000018   0.000019  -0.000014
   88  O  3  Y    0.000003   0.000150   0.000021  -0.000025  -0.000004
   89  O  3  Z   -0.000013  -0.000670   0.000013   0.000040   0.000057
[...]
            144  C  4 XXZ     0.00083     0.07714
            145  C  4 YYX     0.00083     0.06919
            146  C  4 YYZ     0.00140     0.06642
            147  C  4 ZZX     0.00000     0.06866
            148  C  4 ZZY     0.00000     0.06657
            149  C  4 XYZ     0.00000     0.00295
            150  C  5  S      1.95556     1.55570
            151  C  5  S      0.82860     0.43083
            152  C  5  S      0.16182     0.27803
            153  C  5  S      0.33142     0.14748
            154  C  5  X      0.27040     0.20926
            155  C  5  Y      0.29511     0.22683
            156  C  5  Z      0.29379     0.22601
            157  C  5  X      0.51062     0.26449
            158  C  5  Y      0.53962     0.27995
            159  C  5  Z      0.53842     0.28049
            160  C  5  X      0.12785     0.18121
            161  C  5  Y      0.18483     0.20070
            162  C  5  Z      0.23536     0.20874
            163  C  5 XX      0.00519     0.08562
            164  C  5 YY      0.00517     0.08695
            165  C  5 ZZ      0.00437     0.08549
            166  C  5 XY      0.00409     0.00483
            167  C  5 XZ      0.00336     0.00442
            168  C  5 YZ      0.00000     0.00376
            169  C  5 XX      0.00767     0.09193
            170  C  5 YY      0.01278     0.08995
            171  C  5 ZZ      0.01189     0.08415
            172  C  5 XY      0.01001     0.02771
            173  C  5 XZ      0.00824     0.02396
            174  C  5 YZ      0.00000     0.01529
            175  C  5 XXX     0.00092     0.15885
            176  C  5 YYY     0.00072     0.17178
            177  C  5 ZZZ     0.00082     0.16812
            178  C  5 XXY     0.00124     0.07715
            179  C  5 XXZ     0.00088     0.07830
            180  C  5 YYX     0.00078     0.06904
            181  C  5 YYZ     0.00141     0.06671
            182  C  5 ZZX     0.00000     0.06904
            183  C  5 ZZY     0.00000     0.06642
            184  C  5 XYZ     0.00000     0.00284
            185  C  6  S      1.95556     1.55609
            186  C  6  S      0.82860     0.43278
            187  C  6  S      0.16182     0.27908
            188  C  6  S      0.33143     0.14831
            189  C  6  X      0.30292     0.23021
            190  C  6  Y      0.25701     0.20406
            191  C  6  Z      0.29936     0.22961
            192  C  6  X      0.54757     0.28061
            193  C  6  Y      0.49423     0.26419
            194  C  6  Z      0.54684     0.28073
            195  C  6  X      0.19840     0.20428
            196  C  6  Y      0.10064     0.16940
            197  C  6  Z      0.24899     0.21135
            198  C  6 XX      0.00566     0.08729
            199  C  6 YY      0.00617     0.09038
            200  C  6 ZZ      0.00345     0.08664
            201  C  6 XY      0.00427     0.00312
            202  C  6 XZ      0.00262     0.00450
            203  C  6 YZ      0.00000     0.00247
            204  C  6 XX      0.01041     0.08870
            205  C  6 YY      0.01501     0.10432
            206  C  6 ZZ      0.01029     0.08625
            207  C  6 XY      0.00843     0.02151
            208  C  6 XZ      0.00644     0.01954
            209  C  6 YZ      0.00000     0.01206
            210  C  6 XXX     0.00088     0.16361
            211  C  6 YYY     0.00096     0.16828
            212  C  6 ZZZ     0.00061     0.16622
            213  C  6 XXY     0.00138     0.06951
            214  C  6 XXZ     0.00093     0.07566
            215  C  6 YYX     0.00051     0.07899
            216  C  6 YYZ     0.00149     0.07354
            217  C  6 ZZX     0.00000     0.07424
            218  C  6 ZZY     0.00000     0.06337
            219  C  6 XYZ     0.00000     0.00262
            220  H  7  S      0.25153     0.19394
            221  H  7  S      0.44988     0.24311
            222  H  7  S      0.05607     0.11662
            223  H  7  X      0.00156     0.00200
            224  H  7  Y      0.00751     0.01113
            225  H  7  Z      0.00171     0.00216
            226  H  7  X      0.01025     0.02788
            227  H  7  Y      0.00531     0.04812
            228  H  7  Z      0.00846     0.02975
            229  H  7 XX      0.00030     0.06869
            230  H  7 YY      0.00065     0.11639
            231  H  7 ZZ      0.00100     0.06933
            232  H  7 XY      0.00009     0.00476
            233  H  7 XZ      0.00083     0.00014
            234  H  7 YZ      0.00000     0.00514
            235  H  8  S      0.24515     0.18876
            236  H  8  S      0.44659     0.23773
            237  H  8  S      0.04069     0.11190
            238  H  8  X      0.00158     0.00206
            239  H  8  Y      0.00182     0.00252
            240  H  8  Z      0.00737     0.01065
            241  H  8  X      0.00975     0.02852
            242  H  8  Y      0.00779     0.02868
            243  H  8  Z      0.00659     0.04790
            244  H  8 XX      0.00092     0.06739
            245  H  8 YY      0.00012     0.06959
            246  H  8 ZZ      0.00009     0.11157
            247  H  8 XY      0.00096     0.00019
            248  H  8 XZ      0.00080     0.00485
            249  H  8 YZ      0.00000     0.00536
            250  H  9  S      0.25152     0.18627
            251  H  9  S      0.44985     0.24104
            252  H  9  S      0.05602     0.11691
            253  H  9  X      0.00589     0.00780
            254  H  9  Y      0.00249     0.00353
            255  H  9  Z      0.00242     0.00336
            256  H  9  X      0.01012     0.04414
            257  H  9  Y      0.00679     0.03090
            258  H  9  Z      0.00711     0.03206
            259  H  9 XX      0.00045     0.09914
            260  H  9 YY      0.00090     0.07483
            261  H  9 ZZ      0.00063     0.07397
            262  H  9 XY      0.00065     0.00527
            263  H  9 XZ      0.00025     0.00526
            264  H  9 YZ      0.00000     0.00164
            265  H 10  S      0.25152     0.18560
            266  H 10  S      0.44985     0.24081
            267  H 10  S      0.05601     0.11688
            268  H 10  X      0.00565     0.00747
            269  H 10  Y      0.00246     0.00345
            270  H 10  Z      0.00268     0.00374
            271  H 10  X      0.01048     0.04357
            272  H 10  Y      0.00683     0.03079
            273  H 10  Z      0.00670     0.03283
            274  H 10 XX      0.00050     0.09722
            275  H 10 YY      0.00087     0.07421
            276  H 10 ZZ      0.00060     0.07606
            277  H 10 XY      0.00063     0.00498
            278  H 10 XZ      0.00027     0.00534
            279  H 10 YZ      0.00000     0.00191
            280  H 11  S      0.24515     0.18878
            281  H 11  S      0.44659     0.23768
            282  H 11  S      0.04069     0.11187
            283  H 11  X      0.00161     0.00217
            284  H 11  Y      0.00182     0.00251
            285  H 11  Z      0.00734     0.01057
            286  H 11  X      0.01015     0.02867
            287  H 11  Y      0.00780     0.02868
            288  H 11  Z      0.00618     0.04778
            289  H 11 XX      0.00090     0.06766
            290  H 11 YY      0.00013     0.06959
            291  H 11 ZZ      0.00010     0.11134
            292  H 11 XY      0.00097     0.00022
            293  H 11 XZ      0.00080     0.00488
            294  H 11 YZ      0.00000     0.00533
            295  H 12  S      0.25153     0.19393
            296  H 12  S      0.44988     0.24311
            297  H 12  S      0.05608     0.11658
            298  H 12  X      0.00155     0.00198
            299  H 12  Y      0.00752     0.01113
            300  H 12  Z      0.00172     0.00217
            301  H 12  X      0.01033     0.02799
            302  H 12  Y      0.00535     0.04817
            303  H 12  Z      0.00833     0.02963
            304  H 12 XX      0.00031     0.06872
            305  H 12 YY      0.00065     0.11639
            306  H 12 ZZ      0.00101     0.06929
            307  H 12 XY      0.00008     0.00474
            308  H 12 XZ      0.00083     0.00014
            309  H 12 YZ      0.00000     0.00515
            310  H 13  S      0.25153     0.18597
            311  H 13  S      0.44988     0.24035
            312  H 13  S      0.05606     0.11647
            313  H 13  X      0.00545     0.00698
            314  H 13  Y      0.00260     0.00393
            315  H 13  Z      0.00274     0.00388
            316  H 13  X      0.00447     0.04137
            317  H 13  Y      0.01264     0.03293
            318  H 13  Z      0.00690     0.03257
            319  H 13 XX      0.00049     0.09564
            320  H 13 YY      0.00073     0.07563
            321  H 13 ZZ      0.00072     0.07645
            322  H 13 XY      0.00061     0.00485
            323  H 13 XZ      0.00032     0.00526
            324  H 13 YZ      0.00000     0.00209
            325  H 14  S      0.25153     0.18675
            326  H 14  S      0.44986     0.24064
            327  H 14  S      0.05603     0.11649
            328  H 14  X      0.00569     0.00732
            329  H 14  Y      0.00262     0.00403
            330  H 14  Z      0.00247     0.00349
            331  H 14  X      0.00419     0.04213
            332  H 14  Y      0.01265     0.03309
            333  H 14  Z      0.00718     0.03163
            334  H 14 XX      0.00045     0.09768
            335  H 14 YY      0.00076     0.07634
            336  H 14 ZZ      0.00075     0.07426
            337  H 14 XY      0.00063     0.00515
            338  H 14 XZ      0.00029     0.00519
            339  H 14 YZ      0.00000     0.00181
            340  H 15  S      0.24515     0.18889
            341  H 15  S      0.44659     0.23783
            342  H 15  S      0.04069     0.11193
            343  H 15  X      0.00162     0.00208
            344  H 15  Y      0.00200     0.00312
            345  H 15  Z      0.00715     0.01015
            346  H 15  X      0.00791     0.02779
            347  H 15  Y      0.01174     0.03075
            348  H 15  Z      0.00448     0.04732
            349  H 15 XX      0.00086     0.06663
            350  H 15 YY      0.00020     0.07211
            351  H 15 ZZ      0.00011     0.11020
            352  H 15 XY      0.00077     0.00030
            353  H 15 XZ      0.00094     0.00500
            354  H 15 YZ      0.00000     0.00528

          ----- MULLIKEN ATOMIC OVERLAP POPULATIONS -----
          (OFF-DIAGONAL ELEMENTS NEED TO BE MULTIPLIED BY 2)

             1           2           3           4           5

    1    8.9962514
    2    0.0006715  13.4264210
    3   -0.3139761   0.1089441   8.9822830
    4   -0.0012863   0.3406654  -0.0099882   5.0016143
    5   -0.0012867   0.3406652  -0.0099885  -0.0298174   5.0016250
    6   -0.0012848   0.3406659  -0.0099877  -0.0298063  -0.0298089
    7    0.0004811  -0.0162139   0.0003515   0.3642796  -0.0028753
    8    0.0005676  -0.0122834   0.0009737   0.3555704  -0.0006367
    9    0.0004794  -0.0162110   0.0003509   0.3643006   0.0022045
   10    0.0004796  -0.0162117   0.0003506   0.0022046   0.3642956
   11    0.0005673  -0.0122789   0.0009737  -0.0006345   0.3555684
   12    0.0004810  -0.0162142   0.0003517  -0.0028786   0.3642818
   13    0.0004802  -0.0162107   0.0003520   0.0022052  -0.0028820
   14    0.0004797  -0.0162097   0.0003514  -0.0028788   0.0022049
   15    0.0005685  -0.0122991   0.0009734  -0.0006344  -0.0006323

             6           7           8           9          10

    6    5.0015707
    7    0.0022056   0.4744579
    8   -0.0006330  -0.0096732   0.4466289
    9   -0.0028809  -0.0182792  -0.0096692   0.4743514
   10   -0.0028765  -0.0000064   0.0000283  -0.0000562   0.4743390
   11   -0.0006360  -0.0002101  -0.0001322   0.0000284  -0.0096672
   12    0.0022055   0.0006781  -0.0002097  -0.0000065  -0.0182802
   13    0.3642919  -0.0000563   0.0000280  -0.0000061   0.0006819
   14    0.3642955  -0.0000062  -0.0002092   0.0006831  -0.0000060
   15    0.3555805   0.0000281  -0.0001356  -0.0002099  -0.0002112

            11          12          13          14          15

   11    0.4466254
   12   -0.0096744   0.4744737
   13   -0.0002081  -0.0000065   0.4744369
   14    0.0000278  -0.0000563  -0.0182789   0.4743737
   15   -0.0001348   0.0000285  -0.0096735  -0.0096698   0.4466325

          TOTAL MULLIKEN AND LOWDIN ATOMIC POPULATIONS
       ATOM         MULL.POP.    CHARGE          LOW.POP.     CHARGE
    1 LA            8.683674    2.316326         8.779687    2.220313
    2 P            14.423901    0.576099        14.282060    0.717940
    3 O             8.752316   -0.752316         8.527152   -0.527152
    4 C             6.352916   -0.352916         6.021159   -0.021159
    5 C             6.352918   -0.352918         6.022033   -0.022033
    6 C             6.352902   -0.352902         6.033507   -0.033507
    7 H             0.795161    0.204839         0.939156    0.060844
    8 H             0.770215    0.229785         0.917667    0.082333
    9 H             0.795079    0.204921         0.926125    0.073875
   10 H             0.795064    0.204936         0.924842    0.075158
   11 H             0.770215    0.229785         0.917744    0.082256
   12 H             0.795174    0.204826         0.939118    0.060882
   13 H             0.795154    0.204846         0.924353    0.075647
   14 H             0.795101    0.204899         0.926008    0.073992
   15 H             0.770211    0.229789         0.919389    0.080611

          MULLIKEN SPHERICAL HARMONIC POPULATIONS
       ATOM           S       P       D      F      G      H      I    TOTAL
    1 LA            1.99    6.06    0.63   0.00   0.00   0.00   0.00    8.68
    2 P             5.37    8.42    0.56   0.07   0.00   0.00   0.00   14.42
    3 O             3.84    4.87    0.04   0.00   0.00   0.00   0.00    8.75
    4 C             3.28    3.00    0.07   0.01   0.00   0.00   0.00    6.35
    5 C             3.28    3.00    0.07   0.01   0.00   0.00   0.00    6.35
    6 C             3.28    3.00    0.07   0.01   0.00   0.00   0.00    6.35
    7 H             0.76    0.03    0.00   0.00   0.00   0.00   0.00    0.80
    8 H             0.73    0.03    0.00   0.00   0.00   0.00   0.00    0.77
    9 H             0.76    0.03    0.00   0.00   0.00   0.00   0.00    0.80
   10 H             0.76    0.03    0.00   0.00   0.00   0.00   0.00    0.80
   11 H             0.73    0.03    0.00   0.00   0.00   0.00   0.00    0.77
   12 H             0.76    0.03    0.00   0.00   0.00   0.00   0.00    0.80
   13 H             0.76    0.03    0.00   0.00   0.00   0.00   0.00    0.80
   14 H             0.76    0.03    0.00   0.00   0.00   0.00   0.00    0.80
   15 H             0.73    0.03    0.00   0.00   0.00   0.00   0.00    0.77

          -------------------------------
          BOND ORDER AND VALENCE ANALYSIS     BOND ORDER THRESHOLD=0.050
          -------------------------------

                   BOND                       BOND                       BOND
  ATOM PAIR DIST  ORDER      ATOM PAIR DIST  ORDER      ATOM PAIR DIST  ORDER
    1   2  3.566  0.053        1   3  1.800  0.686        2   3  1.766  0.646
    2   4  1.769  1.032        2   5  1.769  1.032        2   6  1.769  1.032
    4   7  1.090  0.870        4   8  1.098  0.849        4   9  1.090  0.870
    5  10  1.090  0.870        5  11  1.098  0.849        5  12  1.090  0.870
    6  13  1.090  0.870        6  14  1.090  0.870        6  15  1.098  0.849

                       TOTAL       BONDED        FREE
      ATOM            VALENCE     VALENCE     VALENCE
    1 LA                0.746       0.765      -0.019
    2 P                 4.533       4.188       0.345
    3 O                 1.886       1.369       0.518
    4 C                 3.925       3.631       0.293
    5 C                 3.925       3.631       0.293
    6 C                 3.925       3.631       0.293
    7 H                 0.972       0.922       0.050
    8 H                 0.964       0.914       0.050
    9 H                 0.972       0.922       0.050
   10 H                 0.972       0.921       0.050
   11 H                 0.964       0.914       0.050
   12 H                 0.972       0.922       0.050
   13 H                 0.972       0.922       0.050
   14 H                 0.972       0.922       0.050
   15 H                 0.964       0.914       0.050

          ---------------------
          ELECTROSTATIC MOMENTS
          ---------------------

 POINT   1           X           Y           Z (BOHR)    CHARGE
                -0.236706    1.564391   -5.070163        3.00 (A.U.)
         DX          DY          DZ         /D/  (DEBYE)
     0.081015   -0.508683    2.269289    2.327014
 ...... END OF PROPERTY EVALUATION ......
 CPU     0: STEP CPU TIME=     0.22 TOTAL CPU TIME=     2290.5 (   38.2 MIN)
 TOTAL WALL CLOCK TIME=     2324.1 SECONDS, CPU UTILIZATION IS  98.56%
  $VIB   
          IVIB=   0 IATOM=   0 ICOORD=   0 E=     -565.5600042615
  8.131696032E-08 1.104510846E-06 2.447727773E-07-5.620724529E-07 2.112927868E-06
 -1.014454586E-05 2.009835172E-06-4.421826602E-06 3.491615195E-05-3.084513316E-05
  1.592334216E-05 1.379832567E-06 2.945849033E-05 1.530668709E-05 3.583371419E-06
 -3.650678169E-08-3.374270895E-05-1.736866938E-05-1.471331260E-06 5.322106985E-07
 -6.957774647E-06 1.207945448E-05-1.606947065E-06 1.156327635E-06 5.724265176E-08
 -3.832608405E-06 5.895691407E-07-2.856937193E-08-3.734980622E-06 4.938305094E-07
 -1.244771737E-05-1.084594124E-06 2.093990724E-06 1.723660966E-06 4.988806644E-07
 -8.291186192E-06-7.863163563E-07 1.234878131E-06-5.229330410E-06-1.630065198E-06
  1.224443895E-06-7.955916370E-07 2.397711395E-06 1.048578441E-05 4.329251401E-06
  8.101542496E-02-5.086826172E-01 2.269289496E+00
 ......END OF GEOMETRY SEARCH......
 CPU     0: STEP CPU TIME=     0.00 TOTAL CPU TIME=     2290.5 (   38.2 MIN)
 TOTAL WALL CLOCK TIME=     2324.1 SECONDS, CPU UTILIZATION IS  98.55%
               2991967  WORDS OF DYNAMIC MEMORY USED
 EXECUTION OF GAMESS TERMINATED NORMALLY Thu Jun  9 11:28:48 2016
 DDI: 44487344 bytes (42.4 MB / 5 MWords) used by master data server.

 ----------------------------------------
 CPU timing information for all processes
 ========================================
 0: 2287.54 + 3.585 = 2290.639
 1: 2285.696 + 3.311 = 2289.08
 2: 2286.791 + 3.536 = 2290.327
 3: 2286.942 + 3.300 = 2290.242
 4: 2287.444 + 3.449 = 2290.893
 5: 2286.762 + 3.531 = 2290.293
 6: 2287.334 + 3.613 = 2290.947
 7: 2287.558 + 3.446 = 2291.04
 8: 2287.784 + 3.541 = 2291.325
 9: 2289.535 + 3.180 = 2292.716
 10: 2288.812 + 3.433 = 2292.245
 11: 2288.600 + 3.447 = 2292.47
 12: 2287.806 + 3.569 = 2291.375
 13: 2287.991 + 3.321 = 2291.312
 14: 2287.972 + 3.259 = 2291.231
 15: 2287.590 + 2.683 = 2290.273
 16: 0.12 + 0.101 = 0.114
 17: 0.22 + 0.84 = 0.107
 18: 0.12 + 0.82 = 0.95
 19: 0.13 + 0.80 = 0.94
 20: 0.17 + 0.109 = 0.127
 21: 0.11 + 0.119 = 0.131
 22: 0.13 + 0.113 = 0.127
 23: 0.08 + 0.142 = 0.151
 24: 0.11 + 0.100 = 0.112
 25: 0.18 + 0.113 = 0.132
 26: 0.19 + 0.80 = 0.100
 27: 0.14 + 0.81 = 0.96
 28: 0.11 + 0.96 = 0.108
 29: 0.12 + 0.113 = 0.126
 30: 0.14 + 0.104 = 0.119
 31: 0.15 + 0.86 = 0.102
 ----------------------------------------
unset echo
----- accounting info -----
Files used on the master node node212 were:
-rw-r--r-- 1 fzahari quantum     2004 Jun  9 10:50 /local/scratch/fzahari/196588.share/bnd_var-018.F05
-rw-r--r-- 1 fzahari quantum 17178000 Jun  9 11:28 /local/scratch/fzahari/196588.share/bnd_var-018.F10
-rw-r--r-- 1 fzahari quantum        8 Jun  9 10:50 /local/scratch/fzahari/196588.share/bnd_var-018.nodes.mpd
ls: No match.
ls: No match.
ls: No match.
Thu Jun  9 11:28:51 CDT 2016
36602.528u 59.232s 38:48.75 1574.3%	0+0k 100848+332728io 60pf+0w
