----- GAMESS execution script 'rungms' -----
This job is running on host node218
under operating system Linux at Thu Jun 9 11:01:07 CDT 2016
PBS has assigned the following compute nodes to this run:
node218
Available scratch disk space (Kbyte units) at beginning of the job is
Filesystem           1K-blocks      Used Available Use% Mounted on
/dev/sda7            2670838024 1838445736 696721504  73% /local
GAMESS temporary binary files will be written to /local/scratch/fzahari/196591.share
GAMESS supplementary output files will be written to /work1/quantum/fzahari/scr
Copying input file bnd_var-021.inp to your run's scratch directory...
cp bnd_var-021.inp /local/scratch/fzahari/196591.share/bnd_var-021.F05
unset echo
setenv I_MPI_WAIT_MODE enable
setenv I_MPI_PIN disable
setenv I_MPI_DEBUG 0
setenv I_MPI_STATS 0
setenv I_MPI_FABRICS dapl
setenv I_MPI_DAT_LIBRARY libdat2.so
unset echo
MPI kickoff will run GAMESS on 16 cores in 1 nodes.
The binary to be executed is /home/mschmidt/gamess/gamess.132.x
MPI will run 16 compute processes and 16 data servers,
    placing 16 of each process type onto each node.
The scratch disk space on each node is /local/scratch/fzahari/196591.share, with free space
Filesystem           1K-blocks      Used Available Use% Mounted on
/dev/sda7            2670838024 1838445760 696721480  73% /local
setenv I_MPI_HYDRA_ENV all
setenv I_MPI_PERHOST 32
unset echo
mpiexec.hydra -f /local/scratch/fzahari/196591.share/bnd_var-021.processes.mpd -n 32 /home/mschmidt/gamess/gamess.132.x
          ******************************************************
          *         GAMESS VERSION =  5 DEC 2014 (R1)          *
          *             FROM IOWA STATE UNIVERSITY             *
          * M.W.SCHMIDT, K.K.BALDRIDGE, J.A.BOATZ, S.T.ELBERT, *
          *   M.S.GORDON, J.H.JENSEN, S.KOSEKI, N.MATSUNAGA,   *
          *          K.A.NGUYEN, S.J.SU, T.L.WINDUS,           *
          *       TOGETHER WITH M.DUPUIS, J.A.MONTGOMERY       *
          *         J.COMPUT.CHEM.  14, 1347-1363(1993)        *
          **************** 64 BIT INTEL VERSION ****************

  SINCE 1993, STUDENTS AND POSTDOCS WORKING AT IOWA STATE UNIVERSITY
  AND ALSO IN THEIR VARIOUS JOBS AFTER LEAVING ISU HAVE MADE IMPORTANT
  CONTRIBUTIONS TO THE CODE:
     IVANA ADAMOVIC, CHRISTINE AIKENS, YURI ALEXEEV, POOJA ARORA,
     ANDREY ASADCHEV, ROB BELL, PRADIPTA BANDYOPADHYAY, JONATHAN BENTZ,
     BRETT BODE, KURT BRORSEN, CALEB CARLIN, GALINA CHABAN, WEI CHEN,
     CHEOL HO CHOI, PAUL DAY, ALBERT DEFUSCO, NUWAN DESILVA, TIM DUDLEY,
     DMITRI FEDOROV, GRAHAM FLETCHER, MARK FREITAG, KURT GLAESEMANN,
     DAN KEMP, GRANT MERRILL, NORIYUKI MINEZAWA, JONATHAN MULLIN,
     TAKESHI NAGATA, SEAN NEDD, HEATHER NETZLOFF, BOSILJKA NJEGIC, RYAN OLSON,
     MIKE PAK, SPENCER PRUITT, LUKE ROSKOP, JIM SHOEMAKER, LYUDMILA SLIPCHENKO,
     TONY SMITH, SAROM SOK, JIE SONG, TETSUYA TAKETSUGU, SIMON WEBB,
     PENG XU, SOOHAENG YOO, FEDERICO ZAHARIEV

  ADDITIONAL CODE HAS BEEN PROVIDED BY COLLABORATORS IN OTHER GROUPS:
     IOWA STATE UNIVERSITY:
          JOE IVANIC, AARON WEST, LAIMUTIS BYTAUTAS, KLAUS RUEDENBERG
     UNIVERSITY OF TOKYO: KIMIHIKO HIRAO, TAKAHITO NAKAJIMA,
          TAKAO TSUNEDA, MUNEAKI KAMIYA, SUSUMU YANAGISAWA,
          KIYOSHI YAGI, MAHITO CHIBA, SEIKEN TOKURA, NAOAKI KAWAKAMI
     UNIVERSITY OF AARHUS: FRANK JENSEN
     UNIVERSITY OF IOWA: VISVALDAS KAIRYS, HUI LI
     NATIONAL INST. OF STANDARDS AND TECHNOLOGY: WALT STEVENS, DAVID GARMER
     UNIVERSITY OF PISA: BENEDETTA MENNUCCI, JACOPO TOMASI
     UNIVERSITY OF MEMPHIS: HENRY KURTZ, PRAKASHAN KORAMBATH
     UNIVERSITY OF ALBERTA: TOBY ZENG, MARIUSZ KLOBUKOWSKI
     UNIVERSITY OF NEW ENGLAND: MARK SPACKMAN
     MIE UNIVERSITY: HIROAKI UMEDA
     NAT. INST. OF ADVANCED INDUSTRIAL SCIENCE AND TECHNOLOGY: KAZUO KITAURA
     MICHIGAN STATE UNIVERSITY:
          KAROL KOWALSKI, MARTA WLOCH, JEFFREY GOUR, JESSE LUTZ,
          WEI LI, PIOTR PIECUCH
     UNIVERSITY OF SILESIA: MONIKA MUSIAL, STANISLAW KUCHARSKI
     FACULTES UNIVERSITAIRES NOTRE-DAME DE LA PAIX:
          OLIVIER QUINET, BENOIT CHAMPAGNE
     UNIVERSITY OF CALIFORNIA - SANTA BARBARA: BERNARD KIRTMAN
     INSTITUTE FOR MOLECULAR SCIENCE:
          KAZUYA ISHIMURA, MICHIO KATOUDA, AND SHIGERU NAGASE
     UNIVERSITY OF NOTRE DAME: ANNA POMOGAEVA, DAN CHIPMAN
     KYUSHU UNIVERSITY:
          HARUYUKI NAKANO,
          FENG LONG GU, JACEK KORCHOWIEC, MARCIN MAKOWSKI, AND YURIKO AOKI,
          HIROTOSHI MORI AND EISAKU MIYOSHI
     PENNSYLVANIA STATE UNIVERSITY:
          TZVETELIN IORDANOV, CHET SWALINA, JONATHAN SKONE,
          SHARON HAMMES-SCHIFFER
     WASEDA UNIVERSITY:
          MASATO KOBAYASHI, TOMOKO AKAMA, TSUGUKI TOUMA,
          TAKESHI YOSHIKAWA, YASUHIRO IKABATA, HIROMI NAKAI
     NANJING UNIVERSITY: SHUHUA LI
     UNIVERSITY OF NEBRASKA:
          PEIFENG SU, DEJUN SI, NANDUN THELLAMUREGE, YALI WANG, HUI LI
     UNIVERSITY OF ZURICH: ROBERTO PEVERATI, KIM BALDRIDGE
     N. COPERNICUS UNIVERSITY AND JACKSON STATE UNIVERSITY:
          MARIA BARYSZ
     UNIVERSITY OF COPENHAGEN: CASPER STEINMANN
     TOKYO INSTITUTE OF TECHNOLOGY: HIROYA NAKATA
     NAGOYA UNIVERSITY: YOSHIO NISHIMOTO, STEPHAN IRLE


 PARALLEL VERSION RUNNING ON       16 PROCESSORS IN        1 NODES.

 EXECUTION OF GAMESS BEGUN Thu Jun  9 11:01:08 2016

            ECHO OF THE FIRST FEW INPUT CARDS -
 INPUT CARD> $ZMAT DLC=.T. AUTO=.T. $END                                                    
 INPUT CARD> $ZMAT IFZMAT(1)=1, 1 , 3  FVALUE(1)= 2.1 $END                                  
 INPUT CARD> $CONTRL COORD=UNIQUE NZVAR= 39 $END                                            
 INPUT CARD> $CONTRL ICHARG=+3 MULT=1                                                       
 INPUT CARD>         MPLEVL=2                                                               
 INPUT CARD>         SCFTYP=RHF                                                             
 INPUT CARD>         MAXIT=200 ISPHER=1 ICUT=11                                             
 INPUT CARD>         RUNTYP=OPTIMIZE                                                        
 INPUT CARD>         PP=READ                                                                
 INPUT CARD>         $END                                                                   
 INPUT CARD> $SCF    DIRSCF=.T. FDIFF=.F. $END                                              
 INPUT CARD> $TRANS  DIRTRF=.T. $END                                                        
 INPUT CARD> $SYSTEM MWORDS=300 MEMDDI=300 $END                                             
 INPUT CARD> $GUESS  GUESS=HUCKEL $END                                                      
 INPUT CARD> $BASIS  BASNAM(1)=METAL,                                                       
 INPUT CARD>                   LIGP,                                                        
 INPUT CARD>                   LIGO,                                                        
 INPUT CARD>                   LIGC,                                                        
 INPUT CARD>                   LIGC,                                                        
 INPUT CARD>                   LIGC,                                                        
 INPUT CARD>                   LIGH,                                                        
 INPUT CARD>                   LIGH,                                                        
 INPUT CARD>                   LIGH,                                                        
 INPUT CARD>                   LIGH,                                                        
 INPUT CARD>                   LIGH,                                                        
 INPUT CARD>                   LIGH,                                                        
 INPUT CARD>                   LIGH,                                                        
 INPUT CARD>                   LIGH,                                                        
 INPUT CARD>                   LIGH                                                         
 INPUT CARD> $END                                                                           
 INPUT CARD> $DATA                                                                          
 INPUT CARD>                                                                                
 INPUT CARD> C1                                                                             
 INPUT CARD> LA 57.0 -0.1739353441 1.134168269 -4.0490164368                                
 INPUT CARD> P 15.0 -0.0400359504427 0.290731151918 -0.288089327683                         
 INPUT CARD> O 8.0 -0.101848473443 0.674972071818 -2.00110473568                            
 INPUT CARD> C 6.0 -1.48952784654 1.00318691572 0.447587547717                              
 INPUT CARD> C 6.0 1.45249100536 1.01347578522 0.344321859917                               
 INPUT CARD> C 6.0 -0.0291059710427 -1.47954889598 -0.161326574483                          
 INPUT CARD> H 1.0 -1.49127651334 2.08601998672 0.334216149717                              
 INPUT CARD> H 1.0 -1.45279525024 0.766984138118 1.51548007162                              
 INPUT CARD> H 1.0 -2.39392243534 0.565481781718 0.0284370327171                            
 INPUT CARD> H 1.0 2.32855949396 0.581508683018 -0.136508421883                             
 INPUT CARD> H 1.0 1.49167680466 0.776913914118 1.41206488382                               
 INPUT CARD> H 1.0 1.43925386416 2.09622946002 0.231462857217                               
 INPUT CARD> H 1.0 0.853084528657 -1.89874024118 -0.642393879983                            
 INPUT CARD> H 1.0 -0.940487472743 -1.90559538398 -0.577525779183                           
 INPUT CARD> H 1.0 0.0104042176573 -1.72089572048 0.905243579417                            
 INPUT CARD> $END                                                                           
 INPUT CARD>!                                                                               
  300000000 WORDS OF MEMORY AVAILABLE

     BASIS OPTIONS
     -------------
     GBASIS=             IGAUSS=       0      POLAR=NONE    
     NDFUNC=       0     NFFUNC=       0     DIFFSP=       F
     NPFUNC=       0      DIFFS=       F     BASNAM=METAL   

 USING BASNAM FOR ATOM CUSTOMIZED BASIS CONSTRUCTION
     ----------------
     ATOM  BASIS NAME
     ----------------
       1   METAL   
       2   LIGP    
       3   LIGO    
       4   LIGC    
       5   LIGC    
       6   LIGC    
       7   LIGH    
       8   LIGH    
       9   LIGH    
      10   LIGH    
      11   LIGH    
      12   LIGH    
      13   LIGH    
      14   LIGH    
      15   LIGH    
 NOW LOCATING ALL   15 BASIS SETS IN YOUR INPUT FILE...
 FOUND BASIS SET  $METAL 
  SBKJC                        
                               
  $END                         
 FOUND BASIS SET  $LIGP  
  CCT                          
                               
  $END                         
 FOUND BASIS SET  $LIGO  
  CCT                          
                               
  $END                         
 FOUND BASIS SET  $LIGC  
  CCT                          
                               
  $END                         
 FOUND BASIS SET  $LIGH  
  CCT                          
                               
  $END                         
    5 UNIQUE ATOM CUSTOMIZED BASIS SETS WERE FOUND.

     SEARCHING FOR $MCP
     $MCP GROUP NOT FOUND


     RUN TITLE
     ---------
                                                                                 

 THE POINT GROUP OF THE MOLECULE IS C1      
 THE ORDER OF THE PRINCIPAL AXIS IS     0

 ATOM      ATOMIC                      COORDINATES (BOHR)
           CHARGE         X                   Y                   Z
 LA         57.0    -0.3286901399        2.1432672524       -7.6515315853
 P          15.0    -0.0756569760        0.5494022132       -0.5444098893
 O           8.0    -0.1924657071        1.2755122651       -3.7815396232
 C           6.0    -2.8147994810        1.8957483852        0.8458178207
 C           6.0     2.7448099998        1.9151915293        0.6506739668
 C           6.0    -0.0550023099       -2.7959419988       -0.3048630203
 H           1.0    -2.8181039821        3.9420061798        0.6315769436
 H           1.0    -2.7453849392        1.4493898580        2.8638420752
 H           1.0    -4.5238574387        1.0686056185        0.0537381997
 H           1.0     4.4003393897        1.0988920704       -0.2579635124
 H           1.0     2.8188604230        1.4681544137        2.6684157073
 H           1.0     2.7197954300        3.9612992868        0.4374013765
 H           1.0     1.6120960035       -3.5880987777       -1.2139484094
 H           1.0    -1.7772636184       -3.6010531192       -1.0913654735
 H           1.0     0.0196611205       -3.2520213652        1.7106623172

          INTERNUCLEAR DISTANCES (ANGS.)
          ------------------------------

                1 LA         2 P          3 O          4 C          5 C     

   1 LA      0.0000000    3.8566680    2.1000000 *  4.6869379    4.6862833  
   2 P       3.8566680    0.0000000    1.7566683 *  1.7747790 *  1.7748072 *
   3 O       2.1000000 *  1.7566683 *  0.0000000    2.8336325 *  2.8340046 *
   4 C       4.6869379    1.7747790 *  2.8336325 *  0.0000000    2.9438486 *
   5 C       4.6862833    1.7748072 *  2.8340046 *  2.9438486 *  0.0000000  
   6 C       4.6868567    1.7748464 *  2.8340846 *  2.9440764 *  2.9438040 *
   7 H       4.6748409    2.3909047 *  3.0619096    1.0887532 *  3.1330848  
   8 H       5.7213572    2.3399932 *  3.7682744    1.0943196 *  3.1421422  
   9 H       4.6773255    2.3909116 *  3.0634345    1.0886701 *  3.8852771  
  10 H       4.6771393    2.3911865 *  3.0646921    3.8854564    1.0887099 *
  11 H       5.7206034    2.3394534 *  3.7682147    3.1414960    1.0943364 *
  12 H       4.6744459    2.3912459 *  3.0625687    3.1335625    1.0887001 *
  13 H       4.6752948    2.3910209 *  3.0630030    3.8854953    3.1327142  
  14 H       4.6775007    2.3913253 *  3.0641835    3.1326214    3.8855020  
  15 H       5.7210195    2.3394936 *  3.7682415    3.1432263    3.1418203  

                6 C          7 H          8 H          9 H         10 H     

   1 LA      4.6868567    4.6748409    5.7213572    4.6773255    4.6771393  
   2 P       1.7748464 *  2.3909047 *  2.3399932 *  2.3909116 *  2.3911865 *
   3 O       2.8340846 *  3.0619096    3.7682744    3.0634345    3.0646921  
   4 C       2.9440764 *  1.0887532 *  1.0943196 *  1.0886701 *  3.8854564  
   5 C       2.9438040 *  3.1330848    3.1421422    3.8852771    1.0887099 *
   6 C       0.0000000    3.8854584    3.1441187    3.1321746    3.1316387  
   7 H       3.8854584    0.0000000    1.7710790 *  1.7945214 *  4.1323459  
   8 H       3.1441187    1.7710790 *  0.0000000    1.7713330 *  4.1306308  
   9 H       3.1321746    1.7945214 *  1.7713330 *  0.0000000    4.7253888  
  10 H       3.1316387    4.1323459    4.1306308    4.7253888    0.0000000  
  11 H       3.1432412    3.4312574    2.9463043 *  4.1300134    1.7710548 *
  12 H       3.8854285    2.9323490 *  3.4321337    4.1325112    1.7946159 *
  13 H       1.0887641 *  4.7252629    4.1327458    4.1310360    2.9299456 *
  14 H       1.0887395 *  4.1312995    3.4330473    2.9301683 *  4.1312045  
  15 H       1.0942492 *  4.1320364    2.9500657 *  3.4317777    3.4293086  

               11 H         12 H         13 H         14 H         15 H     

   1 LA      5.7206034    4.6744459    4.6752948    4.6775007    5.7210195  
   2 P       2.3394534 *  2.3912459 *  2.3910209 *  2.3913253 *  2.3394936 *
   3 O       3.7682147    3.0625687    3.0630030    3.0641835    3.7682415  
   4 C       3.1414960    3.1335625    3.8854953    3.1326214    3.1432263  
   5 C       1.0943364 *  1.0887001 *  3.1327142    3.8855020    3.1418203  
   6 C       3.1432412    3.8854285    1.0887641 *  1.0887395 *  1.0942492 *
   7 H       3.4312574    2.9323490 *  4.7252629    4.1312995    4.1320364  
   8 H       2.9463043 *  3.4321337    4.1327458    3.4330473    2.9500657 *
   9 H       4.1300134    4.1325112    4.1310360    2.9301683 *  3.4317777  
  10 H       1.7710548 *  1.7946159 *  2.9299456 *  4.1312045    3.4293086  
  11 H       0.0000000    1.7712038 *  3.4333258    4.1315554    2.9478957 *
  12 H       1.7712038 *  0.0000000    4.1312229    4.7256993    4.1311060  
  13 H       3.4333258    4.1312229    0.0000000    1.7947578 *  1.7711354 *
  14 H       4.1315554    4.7256993    1.7947578 *  0.0000000    1.7711335 *
  15 H       2.9478957 *  4.1311060    1.7711354 *  1.7711335 *  0.0000000  

  * ... LESS THAN  3.000


     ATOMIC BASIS SET
     ----------------
 THE CONTRACTED PRIMITIVE FUNCTIONS HAVE BEEN UNNORMALIZED
 THE CONTRACTED BASIS FUNCTIONS ARE NOW NORMALIZED TO UNITY

  SHELL TYPE  PRIMITIVE        EXPONENT          CONTRACTION COEFFICIENT(S)

 LA        

      1   L       1             9.1730000   -0.054833023521   -0.009797991527
      1   L       2             3.1200000    0.676604290237    0.231261800020
      1   L       3             2.1040000   -1.034429443730   -0.601214480110
      1   L       4             1.3200000   -0.518907222591    0.195188831214
      1   L       5             0.4960000    1.631603699894    1.076136069429

      2   D       6             1.2380000   -0.053797021791
      2   D       7             0.6061000    0.380144153981
      2   D       8             0.2518000    0.720349291785

      3   D       9             0.0978700    1.000000000000

      4   L      10             0.6182000   -0.107095028128   -0.051868986063
      4   L      11             0.0454600    1.033448271434    1.008107729120

      5   L      12             0.0177500    1.000000000000    1.000000000000

      6   L      13             0.2004000    1.000000000000    1.000000000000

      7   D      14             0.0353600    1.000000000000

 P         

      8   S      15        312400.0000000    0.000057689641
      8   S      16         46800.0000000    0.000448246591
      8   S      17         10650.0000000    0.002349131061
      8   S      18          3018.0000000    0.009781571802
      8   S      19           986.8000000    0.034142936511
      8   S      20           357.4000000    0.100192955985
      8   S      21           139.6000000    0.234346168617
      8   S      22            57.6300000    0.382391849918
      8   S      23            24.6000000    0.318052941833
      8   S      24            10.1200000    0.070770999093
      8   S      25             4.2830000   -0.001817789630
      8   S      26             1.8050000    0.002161561737
      8   S      27             0.2782000    0.000432249354

      9   S      28        312400.0000000   -0.000016380204
      9   S      29         46800.0000000   -0.000127233535
      9   S      30         10650.0000000   -0.000668625166
      9   S      31          3018.0000000   -0.002795303744
      9   S      32           986.8000000   -0.009928227435
      9   S      33           357.4000000   -0.030244566456
      9   S      34           139.6000000   -0.077884705328
      9   S      35            57.6300000   -0.156724571545
      9   S      36            24.6000000   -0.198042753651
      9   S      37            10.1200000    0.037971251521
      9   S      38             4.2830000    0.552751544147
      9   S      39             1.8050000    0.542611452452
      9   S      40             0.2782000   -0.009675942874

     10   S      41        312400.0000000    0.000006865735
     10   S      42         46800.0000000    0.000053281983
     10   S      43         10650.0000000    0.000280421002
     10   S      44          3018.0000000    0.001170789768
     10   S      45           986.8000000    0.004173591138
     10   S      46           357.4000000    0.012720496749
     10   S      47           139.6000000    0.033152766352
     10   S      48            57.6300000    0.067671246836
     10   S      49            24.6000000    0.089831018862
     10   S      50            10.1200000   -0.020305232360
     10   S      51             4.2830000   -0.313280408979
     10   S      52             1.8050000   -0.563687905527
     10   S      53             0.2782000    1.117494073734

     11   S      54             0.6158000    1.000000000000

     12   S      55             0.1055000    1.000000000000

     13   P      56           504.9000000    0.002433660431
     13   P      57           119.4000000    0.019305559477
     13   P      58            37.9600000    0.088473106893
     13   P      59            13.9500000    0.254701981099
     13   P      60             5.4570000    0.440199242653
     13   P      61             2.1770000    0.383632006272
     13   P      62             0.2877000   -0.003946337074

     14   P      63           504.9000000   -0.000954298933
     14   P      64           119.4000000   -0.007664025747
     14   P      65            37.9600000   -0.035465925259
     14   P      66            13.9500000   -0.106164716437
     14   P      67             5.4570000   -0.187210586037
     14   P      68             2.1770000   -0.181495819791
     14   P      69             0.2877000    0.991672644618

     15   P      70             0.8010000    1.000000000000

     16   P      71             0.0971400    1.000000000000

     17   D      72             0.6480000    1.000000000000

     18   D      73             0.2180000    1.000000000000

     19   F      74             0.4520000    1.000000000000

     20   D      75             3.1200000    1.000000000000

 O         

     21   S      76         15330.0000000    0.000520198307
     21   S      77          2299.0000000    0.004023344781
     21   S      78           522.4000000    0.020729083329
     21   S      79           147.3000000    0.081082327080
     21   S      80            47.5500000    0.236226352118
     21   S      81            16.7600000    0.443518209420
     21   S      82             6.2070000    0.358670588689
     21   S      83             0.6882000   -0.008349797237

     22   S      84         15330.0000000   -0.000197236012
     22   S      85          2299.0000000   -0.001535010700
     22   S      86           522.4000000   -0.007951183914
     22   S      87           147.3000000   -0.032113452892
     22   S      88            47.5500000   -0.100269643049
     22   S      89            16.7600000   -0.234047111838
     22   S      90             6.2070000   -0.301410927756
     22   S      91             0.6882000    1.034919649508

     23   S      92             1.7520000    1.000000000000

     24   S      93             0.2384000    1.000000000000

     25   P      94            34.4600000    0.041163489568
     25   P      95             7.7490000    0.257762835858
     25   P      96             2.2800000    0.802419274427

     26   P      97             0.7156000    1.000000000000

     27   P      98             0.2140000    1.000000000000

     28   D      99             2.3140000    1.000000000000

     29   D     100             0.6450000    1.000000000000

     30   F     101             1.4280000    1.000000000000

 C         

     31   S     102          8236.0000000    0.000542430189
     31   S     103          1235.0000000    0.004196427901
     31   S     104           280.8000000    0.021540914108
     31   S     105            79.2700000    0.083614949614
     31   S     106            25.5900000    0.239871618922
     31   S     107             8.9970000    0.443751820060
     31   S     108             3.3190000    0.353579696469
     31   S     109             0.3643000   -0.009176366076

     32   S     110          8236.0000000   -0.000196392234
     32   S     111          1235.0000000   -0.001525950274
     32   S     112           280.8000000   -0.007890449028
     32   S     113            79.2700000   -0.031514870532
     32   S     114            25.5900000   -0.096910008320
     32   S     115             8.9970000   -0.220541526288
     32   S     116             3.3190000   -0.296069112937
     32   S     117             0.3643000    1.040503432950

     33   S     118             0.9059000    1.000000000000

     34   S     119             0.1285000    1.000000000000

     35   P     120            18.7100000    0.039426387165
     35   P     121             4.1330000    0.244088984924
     35   P     122             1.2000000    0.815492008943

     36   P     123             0.3827000    1.000000000000

     37   P     124             0.1209000    1.000000000000

     38   D     125             1.0970000    1.000000000000

     39   D     126             0.3180000    1.000000000000

     40   F     127             0.7610000    1.000000000000

 C         

     41   S     128          8236.0000000    0.000542430189
     41   S     129          1235.0000000    0.004196427901
     41   S     130           280.8000000    0.021540914108
     41   S     131            79.2700000    0.083614949614
     41   S     132            25.5900000    0.239871618922
     41   S     133             8.9970000    0.443751820060
     41   S     134             3.3190000    0.353579696469
     41   S     135             0.3643000   -0.009176366076

     42   S     136          8236.0000000   -0.000196392234
     42   S     137          1235.0000000   -0.001525950274
     42   S     138           280.8000000   -0.007890449028
     42   S     139            79.2700000   -0.031514870532
     42   S     140            25.5900000   -0.096910008320
     42   S     141             8.9970000   -0.220541526288
     42   S     142             3.3190000   -0.296069112937
     42   S     143             0.3643000    1.040503432950

     43   S     144             0.9059000    1.000000000000

     44   S     145             0.1285000    1.000000000000

     45   P     146            18.7100000    0.039426387165
     45   P     147             4.1330000    0.244088984924
     45   P     148             1.2000000    0.815492008943

     46   P     149             0.3827000    1.000000000000

     47   P     150             0.1209000    1.000000000000

     48   D     151             1.0970000    1.000000000000

     49   D     152             0.3180000    1.000000000000

     50   F     153             0.7610000    1.000000000000

 C         

     51   S     154          8236.0000000    0.000542430189
     51   S     155          1235.0000000    0.004196427901
     51   S     156           280.8000000    0.021540914108
     51   S     157            79.2700000    0.083614949614
     51   S     158            25.5900000    0.239871618922
     51   S     159             8.9970000    0.443751820060
     51   S     160             3.3190000    0.353579696469
     51   S     161             0.3643000   -0.009176366076

     52   S     162          8236.0000000   -0.000196392234
     52   S     163          1235.0000000   -0.001525950274
     52   S     164           280.8000000   -0.007890449028
     52   S     165            79.2700000   -0.031514870532
     52   S     166            25.5900000   -0.096910008320
     52   S     167             8.9970000   -0.220541526288
     52   S     168             3.3190000   -0.296069112937
     52   S     169             0.3643000    1.040503432950

     53   S     170             0.9059000    1.000000000000

     54   S     171             0.1285000    1.000000000000

     55   P     172            18.7100000    0.039426387165
     55   P     173             4.1330000    0.244088984924
     55   P     174             1.2000000    0.815492008943

     56   P     175             0.3827000    1.000000000000

     57   P     176             0.1209000    1.000000000000

     58   D     177             1.0970000    1.000000000000

     59   D     178             0.3180000    1.000000000000

     60   F     179             0.7610000    1.000000000000

 H         

     61   S     180            33.8700000    0.025494863235
     61   S     181             5.0950000    0.190362765893
     61   S     182             1.1590000    0.852162022245

     62   S     183             0.3258000    1.000000000000

     63   S     184             0.1027000    1.000000000000

     64   P     185             1.4070000    1.000000000000

     65   P     186             0.3880000    1.000000000000

     66   D     187             1.0570000    1.000000000000

 H         

     67   S     188            33.8700000    0.025494863235
     67   S     189             5.0950000    0.190362765893
     67   S     190             1.1590000    0.852162022245

     68   S     191             0.3258000    1.000000000000

     69   S     192             0.1027000    1.000000000000

     70   P     193             1.4070000    1.000000000000

     71   P     194             0.3880000    1.000000000000

     72   D     195             1.0570000    1.000000000000

 H         

     73   S     196            33.8700000    0.025494863235
     73   S     197             5.0950000    0.190362765893
     73   S     198             1.1590000    0.852162022245

     74   S     199             0.3258000    1.000000000000

     75   S     200             0.1027000    1.000000000000

     76   P     201             1.4070000    1.000000000000

     77   P     202             0.3880000    1.000000000000

     78   D     203             1.0570000    1.000000000000

 H         

     79   S     204            33.8700000    0.025494863235
     79   S     205             5.0950000    0.190362765893
     79   S     206             1.1590000    0.852162022245

     80   S     207             0.3258000    1.000000000000

     81   S     208             0.1027000    1.000000000000

     82   P     209             1.4070000    1.000000000000

     83   P     210             0.3880000    1.000000000000

     84   D     211             1.0570000    1.000000000000

 H         

     85   S     212            33.8700000    0.025494863235
     85   S     213             5.0950000    0.190362765893
     85   S     214             1.1590000    0.852162022245

     86   S     215             0.3258000    1.000000000000

     87   S     216             0.1027000    1.000000000000

     88   P     217             1.4070000    1.000000000000

     89   P     218             0.3880000    1.000000000000

     90   D     219             1.0570000    1.000000000000

 H         

     91   S     220            33.8700000    0.025494863235
     91   S     221             5.0950000    0.190362765893
     91   S     222             1.1590000    0.852162022245

     92   S     223             0.3258000    1.000000000000

     93   S     224             0.1027000    1.000000000000

     94   P     225             1.4070000    1.000000000000

     95   P     226             0.3880000    1.000000000000

     96   D     227             1.0570000    1.000000000000

 H         

     97   S     228            33.8700000    0.025494863235
     97   S     229             5.0950000    0.190362765893
     97   S     230             1.1590000    0.852162022245

     98   S     231             0.3258000    1.000000000000

     99   S     232             0.1027000    1.000000000000

    100   P     233             1.4070000    1.000000000000

    101   P     234             0.3880000    1.000000000000

    102   D     235             1.0570000    1.000000000000

 H         

    103   S     236            33.8700000    0.025494863235
    103   S     237             5.0950000    0.190362765893
    103   S     238             1.1590000    0.852162022245

    104   S     239             0.3258000    1.000000000000

    105   S     240             0.1027000    1.000000000000

    106   P     241             1.4070000    1.000000000000

    107   P     242             0.3880000    1.000000000000

    108   D     243             1.0570000    1.000000000000

 H         

    109   S     244            33.8700000    0.025494863235
    109   S     245             5.0950000    0.190362765893
    109   S     246             1.1590000    0.852162022245

    110   S     247             0.3258000    1.000000000000

    111   S     248             0.1027000    1.000000000000

    112   P     249             1.4070000    1.000000000000

    113   P     250             0.3880000    1.000000000000

    114   D     251             1.0570000    1.000000000000

 TOTAL NUMBER OF BASIS SET SHELLS             =  114
 NUMBER OF CARTESIAN GAUSSIAN BASIS FUNCTIONS =  354
 NOTE: THIS RUN WILL RESTRICT THE MO VARIATION SPACE TO SPHERICAL HARMONICS.
 THE NUMBER OF ORBITALS KEPT IN THE VARIATIONAL SPACE WILL BE PRINTED LATER.
 NUMBER OF ELECTRONS                          =  104
 CHARGE OF MOLECULE                           =    3
 SPIN MULTIPLICITY                            =    1
 NUMBER OF OCCUPIED ORBITALS (ALPHA)          =   52
 NUMBER OF OCCUPIED ORBITALS (BETA )          =   52
 TOTAL NUMBER OF ATOMS                        =   15
 THE NUCLEAR REPULSION ENERGY IS      657.1053919555
 NOTE THIS RUN IS USING CORE POTENTIALS, AND THE NUMBER OF ELECTRONS,
 OCCUPIED ORBITALS, AND NUCLEAR REPULSION ENERGY WILL BE ADJUSTED BELOW
 AFTER REMOVAL OF THE CORE CHARGES.

     $CONTRL OPTIONS
     ---------------
 SCFTYP=RHF          RUNTYP=OPTIMIZE     EXETYP=RUN     
 MPLEVL=       2     CITYP =NONE         CCTYP =NONE         VBTYP =NONE    
 DFTTYP=NONE         TDDFT =NONE    
 MULT  =       1     ICHARG=       3     NZVAR =      39     COORD =UNIQUE  
 PP    =READ         RELWFN=NONE         LOCAL =NONE         NUMGRD=       F
 ISPHER=       1     NOSYM =       0     MAXIT =     200     UNITS =ANGS    
 PLTORB=       F     MOLPLT=       F     AIMPAC=       F     FRIEND=        
 NPRINT=       7     IREST =       0     GEOM  =INPUT   
 NORMF =       0     NORMP =       0     ITOL  =      20     ICUT  =      11
 INTTYP=BEST         GRDTYP=BEST         QMTTOL= 1.0E-06

     $SYSTEM OPTIONS
     ---------------
  REPLICATED MEMORY=   300000000 WORDS (ON EVERY NODE).
 DISTRIBUTED MEMDDI=         300 MILLION WORDS IN AGGREGATE,
 MEMDDI DISTRIBUTED OVER  16 PROCESSORS IS    18750000 WORDS/PROCESSOR.
 TOTAL MEMORY REQUESTED ON EACH PROCESSOR=   318750000 WORDS.
 TIMLIM=      525600.00 MINUTES, OR     365.0 DAYS.
 PARALL= T  BALTYP=  DLB     KDIAG=    0  COREFL= F
 MXSEQ2=     300 MXSEQ3=     150  mem10=         0

          --------------
          ECP POTENTIALS
          --------------

 PARAMETERS FOR "LA-ECP  " ON ATOM    1 WITH ZCORE  46 AND LMAX  4 ARE
 FOR L= 4      COEFF    N           ZETA
    1       -2.85665    1        1.42345
 FOR L= 0      COEFF    N           ZETA
    1        8.85347    0       22.29739
    2      -68.41778    2        1.64320
    3      110.12463    2        1.85122
 FOR L= 1      COEFF    N           ZETA
    1        2.98675    0        1.77635
    2      -35.51815    2        3.98941
    3       53.65423    2        2.47524
 FOR L= 2      COEFF    N           ZETA
    1        1.67298    0        1.52169
    2       18.46625    2        1.52182
 FOR L= 3      COEFF    N           ZETA
    1       -4.64430    1        2.67762
    2      -14.43101    1       10.06608

 THE ECP RUN REMOVES   46 CORE ELECTRONS, AND THE SAME NUMBER OF PROTONS.
 NUMBER OF ELECTRONS KEPT IN THE CALCULATION IS =   58
 NUMBER OF OCCUPIED ORBITALS (ALPHA) KEPT IS    =   29
 NUMBER OF OCCUPIED ORBITALS (BETA ) KEPT IS    =   29
 THE ADJUSTED NUCLEAR REPULSION ENERGY=      332.2091945017
          ECP ANGULAR INTS.........     0.03 SECONDS

          ----------------
          PROPERTIES INPUT
          ----------------

     MOMENTS            FIELD           POTENTIAL          DENSITY
 IEMOM =       1   IEFLD =       0   IEPOT =       0   IEDEN =       0
 WHERE =COMASS     WHERE =NUCLEI     WHERE =NUCLEI     WHERE =NUCLEI  
 OUTPUT=BOTH       OUTPUT=BOTH       OUTPUT=BOTH       OUTPUT=BOTH    
 IEMINT=       0   IEFINT=       0                     IEDINT=       0
                                                       MORB  =       0
          EXTRAPOLATION IN EFFECT
          SOSCF IN EFFECT
 ORBITAL PRINTING OPTION: NPREO=     1   354     2     1

     -------------------------------
     INTEGRAL TRANSFORMATION OPTIONS
     -------------------------------
     NWORD  =            0
     CUTOFF = 1.0E-09     MPTRAN =       0
     DIRTRF =       T     AOINTS =DUP     

          ----------------------
          INTEGRAL INPUT OPTIONS
          ----------------------
 NOPK  =       1 NORDER=       0 SCHWRZ=       T

          -----------------------
          MP2 CONTROL INFORMATION
          -----------------------
          NACORE =       13  NBCORE =       13
          LMOMP2 =        F  AOINTS = DUP     
          METHOD =        2  NWORD  =               0
          MP2PRP =        F  OSPT   = NONE    
          CUTOFF = 1.00E-09  CPHFBS = BASISAO 
          CODE   = DDI     

          NUMBER OF CORE -A-  ORBITALS =    13
          NUMBER OF CORE -B-  ORBITALS =    13
          NUMBER OF OCC. -A-  ORBITALS =    29
          NUMBER OF OCC. -B-  ORBITALS =    29
          NUMBER OF MOLECULAR ORBITALS =   354
          NUMBER OF   BASIS  FUNCTIONS =   354

 
 
 -----------------------------------------------
  STATISTICS ON AUTOMATIC COORDINATE GENERATION 
 -----------------------------------------------
  NUMBER OF USER SPECIFIED BONDS                              0
  NUMBER OF BONDS                                            14
  NUMBER OF ANGLES                                           25
  NUMBER OF TORSIONS                                         30
  NUMBER OF EXTRA COORD.                                      0
  NUMBER OF EXTRA COORD. FOR CONSTRAINTS                      0
  NUMBER OF CONSTRAINED COORD.                                1
 
  TOTAL NUMBER OF PRIMITIVES                                 69
 -----------------------------------------------

   --- ENCODED Z MATRIX ---
 COORD  TYPE   I   J   K   L   M   N
    1      1    1   3
    2      1    2   4
    3      1    2   3
    4      1    2   6
    5      1    2   5
    6      1    4   8
    7      1    4   7
    8      1    4   9
    9      1    5  12
   10      1    5  11
   11      1    5  10
   12      1    6  15
   13      1    6  14
   14      1    6  13
   15      2    1   3   2
   16      2    2   5  11
   17      2    2   4   8
   18      2    2   6  13
   19      2    2   6  14
   20      2    2   4   9
   21      2    2   5  12
   22      2    2   5  10
   23      2    2   4   7
   24      2    2   6  15
   25      2    3   2   4
   26      2    3   2   5
   27      2    3   2   6
   28      2    4   2   6
   29      2    4   2   5
   30      2    5   2   6
   31      2    7   4   9
   32      2    7   4   8
   33      2    8   4   9
   34      2   10   5  11
   35      2   10   5  12
   36      2   11   5  12
   37      2   13   6  14
   38      2   13   6  15
   39      2   14   6  15
   40      3    1   3   2   5
   41      3    1   3   2   4
   42      3    1   3   2   6
   43      3    3   2   4   8
   44      3    3   2   6  15
   45      3    3   2   6  14
   46      3    3   2   4   7
   47      3    3   2   5  10
   48      3    3   2   6  13
   49      3    3   2   5  11
   50      3    3   2   5  12
   51      3    3   2   4   9
   52      3    4   2   6  15
   53      3    4   2   6  14
   54      3    4   2   5  10
   55      3    4   2   6  13
   56      3    4   2   5  12
   57      3    4   2   5  11
   58      3    5   2   6  15
   59      3    5   2   6  14
   60      3    5   2   4   7
   61      3    5   2   6  13
   62      3    5   2   4   9
   63      3    5   2   4   8
   64      3    6   2   4   7
   65      3    6   2   5  10
   66      3    6   2   5  11
   67      3    6   2   5  12
   68      3    6   2   4   9
   69      3    6   2   4   8

          INDEP./SYM. INTERNAL COORDINATES
          --------------------------------
 CRD  1=   1.0000 (  1)
 CRD  2=   0.1315 ( 20)  0.1254 ( 22) -0.1037 ( 23)  0.1253 ( 24)  0.1557 ( 25)
           0.2091 ( 26) -0.3649 ( 27)  0.2845 ( 28) -0.4964 ( 29)  0.2119 ( 30)
           0.1853 ( 40) -0.2040 ( 41) -0.1230 ( 46)  0.1177 ( 50)  0.1254 ( 52)
           0.1643 ( 53) -0.1416 ( 58) -0.1028 ( 59) -0.1694 ( 61) -0.1205 ( 65)
          -0.1549 ( 66)  0.1435 ( 69)
 CRD  3=  -0.2729 (  2)  0.2476 (  5)  0.4485 ( 15)  0.1918 ( 18) -0.1789 ( 19)
          -0.1492 ( 20)  0.1699 ( 22) -0.3062 ( 28)  0.3375 ( 30)  0.1422 ( 40)
           0.1059 ( 41) -0.2481 ( 42)  0.1745 ( 44) -0.1001 ( 49)  0.1224 ( 64)
           0.1228 ( 65)  0.1245 ( 67)  0.1206 ( 68)
 CRD  4=  -0.1700 (  2)  0.3984 (  4) -0.2284 (  5)  0.1442 ( 18)  0.1701 ( 19)
          -0.2173 ( 21) -0.2074 ( 23) -0.1139 ( 25) -0.1529 ( 26)  0.2667 ( 27)
          -0.1288 ( 29) -0.1275 ( 37)  0.1373 ( 40) -0.1518 ( 41)  0.2406 ( 43)
           0.1980 ( 46) -0.1502 ( 47) -0.2182 ( 49) -0.1853 ( 50)  0.1718 ( 51)
           0.1486 ( 54)  0.1135 ( 56) -0.1242 ( 60) -0.1504 ( 62)  0.1088 ( 65)
          -0.1208 ( 68)
 CRD  5=  -0.3965 (  2) -0.3965 (  4) -0.3965 (  5) -0.2736 ( 16) -0.2736 ( 17)
          -0.2736 ( 24)  0.1192 ( 32)  0.1193 ( 33)  0.1192 ( 34)  0.1191 ( 36)
           0.1191 ( 38)  0.1192 ( 39) -0.1211 ( 54)  0.1211 ( 55) -0.1211 ( 59)
           0.1211 ( 62) -0.1211 ( 64)  0.1211 ( 67)
 CRD  6=  -0.2466 (  2) -0.3433 (  3) -0.2465 (  4) -0.2460 (  5)  0.2310 ( 16)
           0.2314 ( 17) -0.2133 ( 18) -0.2126 ( 19) -0.2127 ( 20) -0.2132 ( 21)
          -0.2121 ( 22) -0.2138 ( 23)  0.2310 ( 24)  0.1638 ( 31)  0.1636 ( 35)
           0.1637 ( 37)  0.1289 ( 54) -0.1289 ( 55)  0.1288 ( 59) -0.1288 ( 62)
           0.1288 ( 64) -0.1287 ( 67)
 CRD  7=   0.3447 (  2) -0.3166 (  5) -0.1099 ( 13)  0.1094 ( 14)  0.1170 ( 15)
          -0.2283 ( 16)  0.2472 ( 17)  0.3890 ( 18) -0.3975 ( 19) -0.1329 ( 20)
          -0.2558 ( 21)  0.1858 ( 22)  0.2105 ( 23) -0.1936 ( 32)  0.2005 ( 36)
          -0.1297 ( 38)  0.1508 ( 39)
 CRD  8=   0.1386 (  2) -0.3150 (  4)  0.1767 (  5)  0.1975 ( 16)  0.1521 ( 17)
           0.3514 ( 20) -0.3454 ( 21)  0.3190 ( 22) -0.3697 ( 23) -0.3513 ( 24)
          -0.1895 ( 33) -0.1973 ( 34)  0.1537 ( 38)  0.1335 ( 39)
 CRD  9=  -0.1357 (  2)  0.1234 (  5) -0.3079 ( 15) -0.4063 ( 16)  0.4473 ( 17)
          -0.2579 ( 20)  0.2658 ( 21)  0.2279 ( 22) -0.2859 ( 23)  0.2231 ( 31)
          -0.2029 ( 35)  0.1000 ( 67)
 CRD 10=  -0.3704 ( 18)  0.3708 ( 19) -0.3714 ( 20) -0.3697 ( 21)  0.3711 ( 22)
           0.3702 ( 23) -0.1316 ( 32)  0.1311 ( 33) -0.1307 ( 34)  0.1314 ( 36)
           0.1312 ( 38) -0.1311 ( 39)
 CRD 11=   0.1023 ( 11)  0.1414 ( 12) -0.2911 ( 16) -0.2166 ( 17) -0.2778 ( 18)
          -0.2405 ( 19)  0.3067 ( 20)  0.3264 ( 22)  0.5070 ( 24)  0.1005 ( 27)
           0.1190 ( 32) -0.1316 ( 35)  0.1267 ( 36)  0.2291 ( 37) -0.1082 ( 39)
 CRD 12=   0.7678 (  3)  0.1063 (  6)  0.1054 ( 10)  0.1058 ( 12)  0.2244 ( 16)
           0.2265 ( 17) -0.1100 ( 18) -0.1079 ( 19) -0.1087 ( 20) -0.1086 ( 21)
          -0.1088 ( 22) -0.1100 ( 23)  0.2253 ( 24)  0.1158 ( 31)  0.1152 ( 35)
           0.1154 ( 37)
 CRD 13=  -0.1858 (  2)  0.1685 (  5) -0.1236 (  6)  0.1127 ( 10) -0.4619 ( 15)
           0.2170 ( 16) -0.2381 ( 17)  0.2461 ( 18) -0.2489 ( 19) -0.1523 ( 21)
           0.1320 ( 22)  0.1169 ( 23) -0.1986 ( 25)  0.1805 ( 26)  0.1297 ( 28)
          -0.1433 ( 30)  0.1629 ( 33) -0.1658 ( 34) -0.1073 ( 38) -0.1244 ( 52)
          -0.1456 ( 53)  0.1061 ( 54) -0.1437 ( 55)  0.1252 ( 56)  0.1041 ( 57)
          -0.1177 ( 58) -0.1389 ( 59)  0.1096 ( 60) -0.1370 ( 61)
 CRD 14=  -0.2088 ( 43) -0.2088 ( 44) -0.1810 ( 45) -0.1811 ( 46) -0.1809 ( 47)
          -0.1811 ( 48) -0.2087 ( 49) -0.1809 ( 50) -0.1811 ( 51) -0.2088 ( 52)
          -0.1810 ( 53) -0.1810 ( 54) -0.1811 ( 55) -0.1810 ( 56) -0.2088 ( 57)
          -0.2088 ( 58) -0.1810 ( 59) -0.1810 ( 60) -0.1811 ( 61) -0.1810 ( 62)
          -0.2087 ( 63) -0.1811 ( 64) -0.1810 ( 65) -0.2088 ( 66) -0.1809 ( 67)
          -0.1811 ( 68) -0.2087 ( 69)
 CRD 15=   0.1166 (  7)  0.1430 (  9) -0.2024 ( 13) -0.1968 ( 14) -0.1003 ( 39)
          -0.2649 ( 43) -0.2450 ( 46)  0.2423 ( 47)  0.2405 ( 49)  0.2184 ( 50)
          -0.2628 ( 51)  0.1802 ( 54)  0.1563 ( 56)  0.1784 ( 57) -0.1790 ( 60)
          -0.1967 ( 62) -0.1989 ( 63) -0.1891 ( 64)  0.1939 ( 65)  0.1921 ( 66)
           0.1700 ( 67) -0.2069 ( 68) -0.2090 ( 69)
 CRD 16=   0.3979 (  6)  0.3487 (  7)  0.3120 (  8) -0.3141 (  9) -0.3402 ( 10)
          -0.2534 ( 11)  0.1057 ( 16) -0.1232 ( 17) -0.1767 ( 20)  0.1135 ( 21)
           0.1630 ( 22) -0.1457 ( 23)  0.1847 ( 31)  0.1228 ( 32)  0.1406 ( 33)
          -0.1270 ( 34) -0.1584 ( 35)
 CRD 17=   0.1654 (  6)  0.1778 (  8)  0.1619 (  9)  0.2650 ( 10)  0.2504 ( 11)
          -0.4301 ( 12) -0.3254 ( 13) -0.3393 ( 14)  0.1619 ( 18)  0.1725 ( 19)
          -0.1346 ( 21) -0.1005 ( 23)  0.1241 ( 24)  0.1203 ( 35) -0.1949 ( 37)
          -0.1300 ( 38) -0.1359 ( 39)  0.1037 ( 60)  0.1081 ( 62)  0.1018 ( 63)
           0.1004 ( 68)
 CRD 18=  -0.1007 (  2) -0.1008 (  4) -0.1007 (  5) -0.2692 (  6) -0.3024 (  7)
          -0.3023 (  8) -0.3026 (  9) -0.2691 ( 10) -0.3024 ( 11) -0.2695 ( 12)
          -0.3028 ( 13) -0.3027 ( 14)  0.1121 ( 16)  0.1121 ( 17)  0.1014 ( 18)
           0.1015 ( 19)  0.1013 ( 20)  0.1013 ( 21)  0.1014 ( 22)  0.1013 ( 23)
           0.1122 ( 24) -0.1067 ( 31) -0.1049 ( 32) -0.1050 ( 33) -0.1049 ( 34)
          -0.1069 ( 35) -0.1049 ( 36) -0.1070 ( 37) -0.1049 ( 38) -0.1050 ( 39)
 CRD 19=  -0.1546 (  2)  0.1402 (  5) -0.1685 (  7) -0.2801 (  8)  0.1281 (  9)
           0.2786 ( 11) -0.1106 ( 13)  0.1526 ( 14) -0.2221 ( 15) -0.1068 ( 43)
           0.2501 ( 44)  0.2337 ( 45) -0.1362 ( 47)  0.2344 ( 48) -0.1434 ( 49)
          -0.1320 ( 50) -0.1023 ( 51)  0.2095 ( 52)  0.1931 ( 53)  0.1937 ( 55)
          -0.1037 ( 57)  0.2130 ( 58)  0.1967 ( 59)  0.1973 ( 61) -0.1004 ( 64)
          -0.1314 ( 65) -0.1386 ( 66) -0.1272 ( 67) -0.1050 ( 68) -0.1095 ( 69)
 CRD 20=   0.1946 (  6) -0.2705 (  8)  0.2744 ( 10) -0.2907 ( 11) -0.4794 ( 12)
           0.2092 ( 13)  0.2487 ( 14)  0.1494 ( 32) -0.1395 ( 35)  0.1606 ( 36)
           0.2436 ( 37) -0.1146 ( 38) -0.1362 ( 39) -0.1332 ( 45)  0.1297 ( 48)
          -0.1392 ( 53)  0.1236 ( 55) -0.1264 ( 59)  0.1365 ( 61)
 CRD 21=  -0.4034 (  6)  0.2849 (  7) -0.3080 (  9)  0.3648 ( 10) -0.2742 ( 13)
           0.2339 ( 14)  0.2086 ( 31) -0.1593 ( 33)  0.1704 ( 34) -0.1885 ( 35)
           0.1435 ( 38) -0.1201 ( 39)  0.1229 ( 44) -0.1011 ( 46)  0.1111 ( 47)
           0.1187 ( 51)  0.1259 ( 52)  0.1059 ( 54)  0.1252 ( 58) -0.1064 ( 60)
           0.1133 ( 62)  0.1131 ( 65)  0.1219 ( 68)
 CRD 22=  -0.3846 (  6)  0.1856 (  7)  0.1662 (  8)  0.1604 (  9) -0.3812 ( 10)
           0.1877 ( 11) -0.3765 ( 12)  0.1813 ( 13)  0.1624 ( 14)  0.1956 ( 31)
          -0.1036 ( 33)  0.1937 ( 35) -0.1049 ( 36)  0.1914 ( 37) -0.1014 ( 38)
          -0.1015 ( 45) -0.1036 ( 46) -0.1022 ( 47)  0.1049 ( 48)  0.1067 ( 50)
           0.1072 ( 51) -0.1174 ( 54)  0.1202 ( 55) -0.1168 ( 59)  0.1224 ( 62)
          -0.1188 ( 64)  0.1220 ( 67)
 CRD 23=  -0.3133 (  7)  0.3284 (  8)  0.3222 (  9) -0.3126 ( 11) -0.3144 ( 13)
           0.3255 ( 14) -0.1765 ( 32)  0.1680 ( 33) -0.1730 ( 34)  0.1677 ( 36)
           0.1685 ( 38) -0.1747 ( 39)  0.1256 ( 43)  0.1255 ( 44)  0.1242 ( 49)
           0.1262 ( 52)  0.1237 ( 57)  0.1250 ( 58)  0.1260 ( 63)  0.1247 ( 66)
           0.1250 ( 69)
 CRD 24=  -0.4028 (  7)  0.3136 (  8) -0.3866 (  9)  0.1244 ( 10)  0.2614 ( 11)
          -0.2106 ( 12)  0.1440 ( 13) -0.1744 ( 32)  0.2283 ( 33)  0.2201 ( 34)
          -0.1439 ( 36)  0.1222 ( 37)  0.1153 ( 43)  0.1295 ( 47) -0.1046 ( 49)
          -0.1277 ( 51)  0.1436 ( 54) -0.1422 ( 62)  0.1008 ( 63)  0.1373 ( 65)
          -0.1378 ( 68)  0.1052 ( 69)
 CRD 25=   0.2510 (  6) -0.2318 (  8) -0.1190 (  9) -0.2247 ( 10)  0.2782 ( 11)
          -0.3338 ( 13)  0.3531 ( 14) -0.1527 ( 31)  0.1582 ( 32)  0.1367 ( 35)
          -0.1855 ( 36)  0.2069 ( 38) -0.2213 ( 39) -0.1395 ( 45)  0.1329 ( 46)
          -0.1235 ( 48)  0.1459 ( 50) -0.1552 ( 53) -0.1391 ( 55)  0.1473 ( 56)
          -0.1569 ( 59)  0.1308 ( 60) -0.1409 ( 61)  0.1489 ( 64)  0.1636 ( 67)
 CRD 26=  -0.1032 (  2)  0.2417 (  4) -0.1386 (  5) -0.2387 (  7) -0.2617 (  9)
           0.1286 ( 12)  0.2564 ( 13)  0.2314 ( 14)  0.1668 ( 18)  0.1887 ( 19)
          -0.2090 ( 21) -0.1940 ( 23)  0.1110 ( 24) -0.1293 ( 27) -0.1059 ( 28)
           0.1848 ( 29)  0.1596 ( 32)  0.1295 ( 35)  0.1672 ( 36) -0.2264 ( 37)
          -0.1106 ( 38) -0.1307 ( 39) -0.1342 ( 40)  0.1486 ( 41) -0.1587 ( 43)
          -0.1013 ( 46)  0.1441 ( 49) -0.1360 ( 54) -0.1152 ( 56)  0.1206 ( 60)
           0.1361 ( 62)
 CRD 27=   0.4667 (  3) -0.2684 (  6) -0.2679 ( 10) -0.2681 ( 12) -0.1524 ( 16)
          -0.1528 ( 17) -0.1526 ( 24)  0.1599 ( 32)  0.1605 ( 33)  0.1599 ( 34)
           0.1596 ( 36)  0.1597 ( 38)  0.1603 ( 39) -0.1010 ( 52)  0.1758 ( 54)
          -0.1756 ( 55)  0.1008 ( 57)  0.1008 ( 58)  0.1759 ( 59) -0.1758 ( 62)
          -0.1007 ( 63)  0.1756 ( 64) -0.1011 ( 66) -0.1758 ( 67)  0.1010 ( 69)
 CRD 28=   0.1304 (  6)  0.1620 (  7)  0.2585 (  8) -0.1262 (  9) -0.1188 ( 10)
          -0.2556 ( 11) -0.1326 ( 14) -0.2258 ( 15) -0.1450 ( 16)  0.1594 ( 17)
           0.2150 ( 20) -0.1372 ( 21) -0.2064 ( 22)  0.1634 ( 23) -0.1668 ( 25)
           0.1511 ( 26) -0.2271 ( 31) -0.1188 ( 32) -0.1939 ( 33)  0.1925 ( 34)
           0.2060 ( 35)  0.1028 ( 38) -0.1223 ( 42) -0.1098 ( 43)  0.2574 ( 44)
           0.1840 ( 45) -0.1152 ( 47)  0.1856 ( 48) -0.1475 ( 49)
 CRD 29=   0.3201 (  2) -0.1840 (  3)  0.3202 (  4)  0.3197 (  5) -0.1796 (  7)
          -0.1793 (  8) -0.1796 (  9) -0.1792 ( 11) -0.1794 ( 13) -0.1796 ( 14)
          -0.1222 ( 16) -0.1223 ( 17) -0.1570 ( 18) -0.1569 ( 19) -0.1569 ( 20)
          -0.1568 ( 21) -0.1568 ( 22) -0.1569 ( 23) -0.1223 ( 24)  0.2242 ( 31)
           0.1057 ( 32)  0.1055 ( 33)  0.1052 ( 34)  0.2241 ( 35)  0.1055 ( 36)
           0.2242 ( 37)  0.1056 ( 38)  0.1055 ( 39)
 CRD 30=   0.2352 (  2) -0.5509 (  4)  0.3160 (  5) -0.1621 (  8) -0.1107 ( 10)
          -0.1744 ( 11)  0.1934 ( 12)  0.1373 ( 13)  0.1557 ( 14) -0.1059 ( 16)
           0.1821 ( 18)  0.1785 ( 19) -0.1210 ( 22)  0.1847 ( 24)  0.1589 ( 33)
           0.1803 ( 34) -0.1621 ( 37) -0.2013 ( 38) -0.1873 ( 39)  0.1007 ( 43)
 CRD 31=   0.1876 (  3)  0.1767 (  6)  0.1765 ( 10)  0.1766 ( 12) -0.1279 ( 16)
          -0.1278 ( 17) -0.1278 ( 24) -0.1000 ( 26)  0.1360 ( 31)  0.1359 ( 35)
           0.1359 ( 37) -0.1285 ( 45) -0.1280 ( 46) -0.1283 ( 47)  0.1279 ( 48)
           0.1281 ( 50)  0.1285 ( 51) -0.1325 ( 52) -0.2612 ( 53)  0.2610 ( 56)
           0.1332 ( 57)  0.1331 ( 58) -0.2609 ( 60)  0.2609 ( 61) -0.1332 ( 63)
          -0.2613 ( 65) -0.1326 ( 66)  0.2612 ( 68)  0.1324 ( 69)
 CRD 32=   0.4606 (  2) -0.4179 (  5) -0.1574 (  6) -0.1533 (  7)  0.1742 (  9)
           0.1427 ( 10)  0.1953 ( 13) -0.1814 ( 14) -0.1293 ( 15)  0.1036 ( 16)
          -0.1143 ( 17) -0.1134 ( 20)  0.1082 ( 21)  0.1019 ( 22) -0.1181 ( 23)
          -0.1020 ( 25)  0.1996 ( 32) -0.2079 ( 36)  0.1308 ( 38) -0.1565 ( 39)
          -0.1033 ( 43)  0.2422 ( 44) -0.1388 ( 49)  0.1046 ( 52)  0.1027 ( 58)
 CRD 33=   0.2306 (  7) -0.2309 (  8) -0.2311 (  9)  0.2314 ( 11)  0.2312 ( 13)
          -0.2308 ( 14) -0.1772 ( 32)  0.1769 ( 33) -0.1772 ( 34)  0.1775 ( 36)
           0.1774 ( 38) -0.1771 ( 39)  0.1514 ( 43)  0.1515 ( 44) -0.1131 ( 45)
          -0.1134 ( 46) -0.1132 ( 47) -0.1136 ( 48)  0.1516 ( 49) -0.1137 ( 50)
          -0.1130 ( 51)  0.1516 ( 52) -0.1130 ( 53) -0.1131 ( 54) -0.1135 ( 55)
          -0.1136 ( 56)  0.1517 ( 57)  0.1515 ( 58) -0.1131 ( 59) -0.1135 ( 60)
          -0.1136 ( 61) -0.1131 ( 62)  0.1513 ( 63) -0.1135 ( 64) -0.1131 ( 65)
           0.1517 ( 66) -0.1136 ( 67) -0.1131 ( 68)  0.1513 ( 69)
 CRD 34=   0.1329 (  6)  0.1071 (  7) -0.2246 (  8)  0.1601 ( 10) -0.2247 ( 11)
          -0.2923 ( 12)  0.1173 ( 13)  0.1409 ( 14)  0.1051 ( 20)  0.1049 ( 22)
           0.1003 ( 24)  0.1353 ( 29) -0.1822 ( 32)  0.1151 ( 35) -0.1847 ( 36)
          -0.2102 ( 37)  0.1139 ( 38)  0.1319 ( 39)  0.1003 ( 43)  0.1828 ( 45)
          -0.1753 ( 46) -0.1701 ( 48)  0.1854 ( 50)  0.1464 ( 53) -0.2065 ( 55)
           0.1680 ( 56) -0.1102 ( 57)  0.2192 ( 59) -0.1617 ( 60) -0.1337 ( 61)
           0.1140 ( 63) -0.1942 ( 64)  0.2081 ( 67)
 CRD 35=  -0.2873 (  6)  0.1941 (  7) -0.1978 (  9)  0.2685 ( 10) -0.1523 ( 13)
           0.1352 ( 14)  0.1001 ( 17) -0.1002 ( 28)  0.1066 ( 30) -0.2079 ( 31)
           0.1708 ( 33) -0.1722 ( 34)  0.1942 ( 35) -0.1178 ( 38)  0.1017 ( 39)
           0.1303 ( 46) -0.2151 ( 47)  0.1075 ( 48)  0.1101 ( 50) -0.2175 ( 51)
          -0.2480 ( 54)  0.1197 ( 55)  0.1165 ( 61) -0.2508 ( 62)  0.1544 ( 64)
          -0.1942 ( 65)  0.1309 ( 67) -0.1934 ( 68)
 CRD 36=   0.1588 (  4)  0.2432 (  7) -0.1500 (  8)  0.2405 (  9) -0.1066 ( 10)
          -0.1160 ( 11)  0.1871 ( 12) -0.1269 ( 13)  0.1042 ( 20) -0.1176 ( 21)
          -0.1246 ( 23) -0.1077 ( 24)  0.1306 ( 29) -0.1214 ( 32)  0.1752 ( 33)
           0.1705 ( 34)  0.1701 ( 37)  0.1031 ( 41)  0.1172 ( 43) -0.1160 ( 45)
           0.1849 ( 47)  0.1381 ( 48) -0.1060 ( 49) -0.1779 ( 51) -0.1635 ( 53)
          -0.1029 ( 56) -0.2490 ( 57)  0.1610 ( 61)  0.2674 ( 63) -0.2089 ( 66)
           0.2374 ( 69)
 CRD 37=   0.2305 (  2) -0.2094 (  5)  0.1114 (  6) -0.1655 (  8) -0.1012 ( 10)
           0.1869 ( 11) -0.1927 ( 13)  0.2071 ( 14) -0.1435 ( 18)  0.1423 ( 19)
          -0.1191 ( 25)  0.1080 ( 26) -0.1370 ( 28)  0.1511 ( 30)  0.1217 ( 31)
          -0.1105 ( 35)  0.1124 ( 36) -0.1482 ( 38)  0.1531 ( 39) -0.1515 ( 42)
           0.2088 ( 45) -0.1706 ( 46)  0.1938 ( 48) -0.1920 ( 50) -0.2689 ( 52)
          -0.1061 ( 56)  0.1190 ( 57) -0.2761 ( 58) -0.1197 ( 60)  0.1212 ( 65)
           0.1925 ( 66)  0.1310 ( 68)  0.1573 ( 69)
 CRD 38=  -0.5916 ( 15)  0.3175 ( 25) -0.2880 ( 26) -0.2874 ( 28)  0.3170 ( 30)
          -0.1299 ( 42) -0.1166 ( 44) -0.1486 ( 45)  0.1128 ( 47) -0.1539 ( 48)
          -0.1326 ( 56) -0.1265 ( 57) -0.1359 ( 60) -0.1220 ( 63)
 CRD 39=   0.5775 ( 40)  0.5772 ( 41)  0.5774 ( 42)

 THE DETERMINANT OF THE G MATRIX IS 10**(   -13)


                     --------------------
                     INTERNAL COORDINATES
                     --------------------

                 - - ATOMS - -         COORDINATE      COORDINATE
 NO.   TYPE    I  J  K  L  M  N        (BOHR,RAD)       (ANG,DEG)
 ----------------------------------------------------------------
   1 STRETCH   1  3                     3.9684246       2.1000000
   2 STRETCH   2  4                     3.3538460       1.7747790
   3 STRETCH   2  3                     3.3196218       1.7566683
   4 STRETCH   2  6                     3.3539733       1.7748464
   5 STRETCH   2  5                     3.3538992       1.7748072
   6 STRETCH   4  8                     2.0679643       1.0943196
   7 STRETCH   4  7                     2.0574453       1.0887532
   8 STRETCH   4  9                     2.0572881       1.0886701
   9 STRETCH   5 12                     2.0573449       1.0887001
  10 STRETCH   5 11                     2.0679960       1.0943364
  11 STRETCH   5 10                     2.0573635       1.0887099
  12 STRETCH   6 15                     2.0678311       1.0942492
  13 STRETCH   6 14                     2.0574193       1.0887395
  14 STRETCH   6 13                     2.0574658       1.0887641
  15 BEND      1  3  2                  3.1407285     179.9504864
  16 BEND      2  5 11                  1.8647629     106.8430437
  17 BEND      2  4  8                  1.8654887     106.8846315
  18 BEND      2  6 13                  1.9363405     110.9441357
  19 BEND      2  6 14                  1.9367673     110.9685932
  20 BEND      2  4  9                  1.9363663     110.9456164
  21 BEND      2  5 12                  1.9367468     110.9674169
  22 BEND      2  5 10                  1.9366586     110.9623649
  23 BEND      2  4  7                  1.9362777     110.9405404
  24 BEND      2  6 15                  1.8648449     106.8477426
  25 BEND      3  2  4                  1.8625915     106.7186329
  26 BEND      3  2  5                  1.8629232     106.7376352
  27 BEND      3  2  6                  1.8629692     106.7402727
  28 BEND      4  2  6                  1.9560829     112.0752918
  29 BEND      4  2  5                  1.9558860     112.0640120
  30 BEND      5  2  6                  1.9557846     112.0582053
  31 BEND      7  4  9                  1.9373963     111.0046285
  32 BEND      7  4  8                  1.8926647     108.4417006
  33 BEND      8  4  9                  1.8931684     108.4705596
  34 BEND     10  5 11                  1.8926604     108.4414529
  35 BEND     10  5 12                  1.9375674     111.0144323
  36 BEND     11  5 12                  1.8929064     108.4555452
  37 BEND     13  6 14                  1.9376724     111.0204481
  38 BEND     13  6 15                  1.8928290     108.4511126
  39 BEND     14  6 15                  1.8928573     108.4527372
  40 TORSION   1  3  2  5               0.6078242      34.8257610
  41 TORSION   1  3  2  4               2.7021086     154.8194186
  42 TORSION   1  3  2  6              -1.4865386     -85.1723900
  43 TORSION   3  2  4  8              -3.1397635    -179.8951976
  44 TORSION   3  2  6 15               3.1406228     179.9444323
  45 TORSION   3  2  6 14              -1.0822197     -62.0066193
  46 TORSION   3  2  4  7              -1.0795371     -61.8529181
  47 TORSION   3  2  5 10              -1.0836507     -62.0886112
  48 TORSION   3  2  6 13               1.0805476      61.9108182
  49 TORSION   3  2  5 11               3.1395369     179.8822159
  50 TORSION   3  2  5 12               1.0791952      61.8333328
  51 TORSION   3  2  4  9               1.0825410      62.0250294
  52 TORSION   4  2  6 15              -1.1093065     -63.5585802
  53 TORSION   4  2  6 14               0.9510363      54.4903681
  54 TORSION   4  2  5 10              -3.1167730    -178.5779384
  55 TORSION   4  2  6 13               3.1138036     178.4078057
  56 TORSION   4  2  5 12              -0.9539271     -54.6559945
  57 TORSION   4  2  5 11               1.1064146      63.3928887
  58 TORSION   5  2  6 15               1.1071274      63.4337280
  59 TORSION   5  2  6 14              -3.1157151    -178.5173236
  60 TORSION   5  2  4  7               0.9537852      54.6478664
  61 TORSION   5  2  6 13              -0.9529478     -54.5998861
  62 TORSION   5  2  4  9               3.1158633     178.5258139
  63 TORSION   5  2  4  8              -1.1064412     -63.3944130
  64 TORSION   6  2  4  7              -3.1130207    -178.3629494
  65 TORSION   6  2  5 10               0.9498725      54.4236833
  66 TORSION   6  2  5 11              -1.1101252     -63.6054896
  67 TORSION   6  2  5 12               3.1127184     178.3456273
  68 TORSION   6  2  4  9              -0.9509427     -54.4850018
  69 TORSION   6  2  4  8               1.1099381      63.5947712

     ------------------------------------------
     THE POINT GROUP IS C1 , NAXIS= 0, ORDER= 1
     ------------------------------------------

 -- VARIATIONAL SPACE WILL BE RESTRICTED TO PURE SPHERICAL HARMONICS ONLY --
 AFTER EXCLUDING CONTAMINANT COMBINATIONS FROM THE CARTESIAN GAUSSIAN BASIS
 SET, THE NUMBER OF SPHERICAL HARMONICS KEPT IN THE VARIATION SPACE IS  316

     DIMENSIONS OF THE SYMMETRY SUBSPACES ARE
 A   =  316

 ..... DONE SETTING UP THE RUN .....
 CPU     0: STEP CPU TIME=     0.09 TOTAL CPU TIME=        0.1 (    0.0 MIN)
 TOTAL WALL CLOCK TIME=        0.2 SECONDS, CPU UTILIZATION IS  60.00%


          -----------------------------
          STATIONARY POINT LOCATION RUN
          -----------------------------


           ** GEOMETRY CONSTRAINTS ARE BEING APPLIED. **

          TRANSFORMING DISPLACEMENT FROM INTERNALS TO CARTESIANS
          THE ROOT MEAN SQUARE ERROR IN ITERATION   1 IS   0.00000000
 WARNING! THE RADIUS IN CARTESIANS IS    0.00000
 OBTAINING INITIAL HESSIAN, HESS=GUESS   
 DIAGONAL GUESS HESSIAN IN INTERNAL COORDS IS
     1  0.5855     2  0.4333     3  0.3624     4  0.4333     5  0.4333
     6  0.3435     7  0.3472     8  0.3473     9  0.3472    10  0.3435
    11  0.3472    12  0.3435    13  0.3472    14  0.3472    15  0.3122
    16  0.2409    17  0.2409    18  0.2412    19  0.2412    20  0.2412
    21  0.2412    22  0.2412    23  0.2412    24  0.2409    25  0.2785
    26  0.2785    27  0.2785    28  0.2914    29  0.2914    30  0.2914
    31  0.2035    32  0.2032    33  0.2033    34  0.2032    35  0.2035
    36  0.2032    37  0.2035    38  0.2032    39  0.2033    40  0.2500
    41  0.2500    42  0.2500    43  0.2500    44  0.2500    45  0.2500
    46  0.2500    47  0.2500    48  0.2500    49  0.2500    50  0.2500
    51  0.2500    52  0.2500    53  0.2500    54  0.2500    55  0.2500
    56  0.2500    57  0.2500    58  0.2500    59  0.2500    60  0.2500
    61  0.2500    62  0.2500    63  0.2500    64  0.2500    65  0.2500
    66  0.2500    67  0.2500    68  0.2500    69  0.2500
 TRANSFORMING HESSIAN TO SYMMETRY COORDINATES

          PARAMETERS CONTROLLING GEOMETRY SEARCH ARE
          METHOD =QA                  UPHESS =BFGS    
          NNEG   =         0          NFRZ   =         0
          NSTEP  =        50          IFOLOW =         1
          HESS   =GUESS               RESTAR =         F
          IHREP  =         0          HSSEND =         F
          NPRT   =         0          NPUN   =         0
          OPTTOL = 1.000E-04          RMIN   = 1.500E-03
          RMAX   = 1.000E-01          RLIM   = 7.000E-02
          DXMAX  = 3.000E-01          PURIFY =         F
          MOVIE  =         F          TRUPD  =         T
          TRMAX  = 5.000E-01          TRMIN  = 5.000E-02
          ITBMAT =         5          STPT   =         F
          STSTEP = 1.000E-02          PROJCT=          T

 BEGINNING GEOMETRY SEARCH POINT NSERCH=   0 ...

 COORDINATES OF ALL ATOMS ARE (ANGS)
   ATOM   CHARGE       X              Y              Z
 ------------------------------------------------------------
 LA         57.0  -0.1739353441   1.1341682690  -4.0490164368
 P          15.0  -0.0400359504   0.2907311519  -0.2880893277
 O           8.0  -0.1018484734   0.6749720718  -2.0011047357
 C           6.0  -1.4895278465   1.0031869157   0.4475875477
 C           6.0   1.4524910054   1.0134757852   0.3443218599
 C           6.0  -0.0291059710  -1.4795488960  -0.1613265745
 H           1.0  -1.4912765133   2.0860199867   0.3342161497
 H           1.0  -1.4527952502   0.7669841381   1.5154800716
 H           1.0  -2.3939224353   0.5654817817   0.0284370327
 H           1.0   2.3285594940   0.5815086830  -0.1365084219
 H           1.0   1.4916768047   0.7769139141   1.4120648838
 H           1.0   1.4392538642   2.0962294600   0.2314628572
 H           1.0   0.8530845287  -1.8987402412  -0.6423938800
 H           1.0  -0.9404874727  -1.9055953840  -0.5775257792
 H           1.0   0.0104042177  -1.7208957205   0.9052435794


                     --------------------
                     INTERNAL COORDINATES
                     --------------------

                 - - ATOMS - -         COORDINATE      COORDINATE
 NO.   TYPE    I  J  K  L  M  N        (BOHR,RAD)       (ANG,DEG)
 ----------------------------------------------------------------
   1 STRETCH   1  3                     3.9684246       2.1000000
   2 STRETCH   2  4                     3.3538460       1.7747790
   3 STRETCH   2  3                     3.3196218       1.7566683
   4 STRETCH   2  6                     3.3539733       1.7748464
   5 STRETCH   2  5                     3.3538992       1.7748072
   6 STRETCH   4  8                     2.0679643       1.0943196
   7 STRETCH   4  7                     2.0574453       1.0887532
   8 STRETCH   4  9                     2.0572881       1.0886701
   9 STRETCH   5 12                     2.0573449       1.0887001
  10 STRETCH   5 11                     2.0679960       1.0943364
  11 STRETCH   5 10                     2.0573635       1.0887099
  12 STRETCH   6 15                     2.0678311       1.0942492
  13 STRETCH   6 14                     2.0574193       1.0887395
  14 STRETCH   6 13                     2.0574658       1.0887641
  15 BEND      1  3  2                  3.1407285     179.9504864
  16 BEND      2  5 11                  1.8647629     106.8430437
  17 BEND      2  4  8                  1.8654887     106.8846315
  18 BEND      2  6 13                  1.9363405     110.9441357
  19 BEND      2  6 14                  1.9367673     110.9685932
  20 BEND      2  4  9                  1.9363663     110.9456164
  21 BEND      2  5 12                  1.9367468     110.9674169
  22 BEND      2  5 10                  1.9366586     110.9623649
  23 BEND      2  4  7                  1.9362777     110.9405404
  24 BEND      2  6 15                  1.8648449     106.8477426
  25 BEND      3  2  4                  1.8625915     106.7186329
  26 BEND      3  2  5                  1.8629232     106.7376352
  27 BEND      3  2  6                  1.8629692     106.7402727
  28 BEND      4  2  6                  1.9560829     112.0752918
  29 BEND      4  2  5                  1.9558860     112.0640120
  30 BEND      5  2  6                  1.9557846     112.0582053
  31 BEND      7  4  9                  1.9373963     111.0046285
  32 BEND      7  4  8                  1.8926647     108.4417006
  33 BEND      8  4  9                  1.8931684     108.4705596
  34 BEND     10  5 11                  1.8926604     108.4414529
  35 BEND     10  5 12                  1.9375674     111.0144323
  36 BEND     11  5 12                  1.8929064     108.4555452
  37 BEND     13  6 14                  1.9376724     111.0204481
  38 BEND     13  6 15                  1.8928290     108.4511126
  39 BEND     14  6 15                  1.8928573     108.4527372
  40 TORSION   1  3  2  5               0.6078242      34.8257610
  41 TORSION   1  3  2  4               2.7021086     154.8194186
  42 TORSION   1  3  2  6              -1.4865386     -85.1723900
  43 TORSION   3  2  4  8              -3.1397635    -179.8951976
  44 TORSION   3  2  6 15               3.1406228     179.9444323
  45 TORSION   3  2  6 14              -1.0822197     -62.0066193
  46 TORSION   3  2  4  7              -1.0795371     -61.8529181
  47 TORSION   3  2  5 10              -1.0836507     -62.0886112
  48 TORSION   3  2  6 13               1.0805476      61.9108182
  49 TORSION   3  2  5 11               3.1395369     179.8822159
  50 TORSION   3  2  5 12               1.0791952      61.8333328
  51 TORSION   3  2  4  9               1.0825410      62.0250294
  52 TORSION   4  2  6 15              -1.1093065     -63.5585802
  53 TORSION   4  2  6 14               0.9510363      54.4903681
  54 TORSION   4  2  5 10              -3.1167730    -178.5779384
  55 TORSION   4  2  6 13               3.1138036     178.4078057
  56 TORSION   4  2  5 12              -0.9539271     -54.6559945
  57 TORSION   4  2  5 11               1.1064146      63.3928887
  58 TORSION   5  2  6 15               1.1071274      63.4337280
  59 TORSION   5  2  6 14              -3.1157151    -178.5173236
  60 TORSION   5  2  4  7               0.9537852      54.6478664
  61 TORSION   5  2  6 13              -0.9529478     -54.5998861
  62 TORSION   5  2  4  9               3.1158633     178.5258139
  63 TORSION   5  2  4  8              -1.1064412     -63.3944130
  64 TORSION   6  2  4  7              -3.1130207    -178.3629494
  65 TORSION   6  2  5 10               0.9498725      54.4236833
  66 TORSION   6  2  5 11              -1.1101252     -63.6054896
  67 TORSION   6  2  5 12               3.1127184     178.3456273
  68 TORSION   6  2  4  9              -0.9509427     -54.4850018
  69 TORSION   6  2  4  8               1.1099381      63.5947712

          ********************
          1 ELECTRON INTEGRALS
          ********************
 TIME TO DO ORDINARY INTEGRALS=      0.01
 TIME TO DO      ECP INTEGRALS=      0.08
 ...... END OF ONE-ELECTRON INTEGRALS ......
 CPU     0: STEP CPU TIME=     0.09 TOTAL CPU TIME=        0.2 (    0.0 MIN)
 TOTAL WALL CLOCK TIME=        0.3 SECONDS, CPU UTILIZATION IS  66.67%

          -------------
          GUESS OPTIONS
          -------------
          GUESS =HUCKEL            NORB  =       0          NORDER=       0
          MIX   =       F          PRTMO =       F          PUNMO =       F
          TOLZ  = 1.0E-08          TOLE  = 1.0E-05
          SYMDEN=       F          PURIFY=       F

 INITIAL GUESS ORBITALS GENERATED BY HUCKEL   ROUTINE.
 HUCKEL GUESS REQUIRES    916545 WORDS.

 STATISTICS FOR GENERATION OF SYMMETRY ORBITAL -Q- MATRIX
 NUMBER OF CARTESIAN ATOMIC ORBITALS=        354
 NUMBER OF SPHERICAL CONTAMINANTS DROPPED=    38
 NUMBER OF LINEARLY DEPENDENT MOS DROPPED=     0
 TOTAL NUMBER OF MOS IN VARIATION SPACE=     316

 SYMMETRIES FOR INITIAL GUESS ORBITALS FOLLOW.   BOTH SET(S).
    29 ORBITALS ARE OCCUPIED (   13 CORE ORBITALS).
    14=A       15=A       16=A       17=A       18=A       19=A       20=A   
    21=A       22=A       23=A       24=A       25=A       26=A       27=A   
    28=A       29=A       30=A       31=A       32=A       33=A       34=A   
    35=A       36=A       37=A       38=A       39=A   
 ...... END OF INITIAL ORBITAL SELECTION ......
 CPU     0: STEP CPU TIME=     0.19 TOTAL CPU TIME=        0.4 (    0.0 MIN)
 TOTAL WALL CLOCK TIME=        0.8 SECONDS, CPU UTILIZATION IS  49.33%

                    ----------------------
                    AO INTEGRAL TECHNOLOGY
                    ----------------------
     S,P,L SHELL ROTATED AXIS INTEGRALS, REPROGRAMMED BY
        KAZUYA ISHIMURA (IMS) AND JOSE SIERRA (SYNSTAR).
     S,P,D,L SHELL ROTATED AXIS INTEGRALS PROGRAMMED BY
        KAZUYA ISHIMURA (INSTITUTE FOR MOLECULAR SCIENCE).
     S,P,D,F,G SHELL TO TOTAL QUARTET ANGULAR MOMENTUM SUM 5,
        ERIC PROGRAM BY GRAHAM FLETCHER (ELORET AND NASA ADVANCED
        SUPERCOMPUTING DIVISION, AMES RESEARCH CENTER).
     S,P,D,F,G,L SHELL GENERAL RYS QUADRATURE PROGRAMMED BY
        MICHEL DUPUIS (PACIFIC NORTHWEST NATIONAL LABORATORY).

          --------------------
          2 ELECTRON INTEGRALS
          --------------------

 DIRECT SCF METHOD SKIPS INTEGRAL STORAGE ON DISK.
 DIRECT TRANSFORMATION SKIPS AO INTEGRAL STORAGE ON DISK.
  ...... END OF TWO-ELECTRON INTEGRALS .....
 CPU     0: STEP CPU TIME=     0.01 TOTAL CPU TIME=        0.4 (    0.0 MIN)
 TOTAL WALL CLOCK TIME=        0.8 SECONDS, CPU UTILIZATION IS  50.00%

          --------------------------
                 RHF SCF CALCULATION
          --------------------------

     NUCLEAR ENERGY =       332.2091945018
     MAXIT =  200     NPUNCH=    2
     EXTRAP=T  DAMP=F  SHIFT=F  RSTRCT=F  DIIS=F  DEM=F  SOSCF=T
     DENSITY MATRIX CONV=  2.00E-06
     SOSCF WILL OPTIMIZE    8323 ORBITAL ROTATIONS, SOGTOL=   0.250
     MEMORY REQUIRED FOR RHF ITERS=    982670 WORDS.

 DIRECT SCF CALCULATION, SCHWRZ=T   FDIFF=F,  DIRTHR=  0.00E+00 NITDIR=10
 SCHWARZ INEQUALITY OVERHEAD:     62118 INTEGRALS, T=        0.01

                                                                                   NONZERO     BLOCKS
 ITER EX DEM     TOTAL ENERGY        E CHANGE  DENSITY CHANGE     ORB. GRAD      INTEGRALS    SKIPPED
   1  0  0     -563.3806482796  -563.3806482796   0.371463082   0.000000000     1451822562    4240112
          ---------------START SECOND ORDER SCF---------------
   2  1  0     -564.5042442976    -1.1235960180   0.163017631   0.095948097     1438805939    4548788
   3  2  0     -564.6221715186    -0.1179272210   0.065556683   0.061606683     1437548926    4572928
   4  3  0     -564.7182029567    -0.0960314382   0.021733278   0.011474220     1437957419    4557338
   5  4  0     -564.7207369952    -0.0025340385   0.006486830   0.006344720     1438516202    4549706
   6  5  0     -564.7213824584    -0.0006454632   0.002809543   0.001298746     1438586694    4548694
   7  6  0     -564.7214350346    -0.0000525762   0.000910959   0.000252549     1438599217    4548279
   8  7  0     -564.7214400131    -0.0000049785   0.000302323   0.000084792     1438618614    4548142
   9  8  0     -564.7214404690    -0.0000004560   0.000102315   0.000027254     1438624123    4548119
  10  9  0     -564.7214405152    -0.0000000462   0.000037183   0.000010869     1438625044    4548153
  11 10  0     -564.7214405211    -0.0000000059   0.000014488   0.000004839     1438624589    4548178
  12 11  0     -564.7214405221    -0.0000000010   0.000006596   0.000001684     1438625089    4548174
  13 12  0     -564.7214405223    -0.0000000002   0.000002618   0.000000623     1438624745    4548170
  14 13  0     -564.7214405223    -0.0000000000   0.000001084   0.000000292     1438624786    4548167

          -----------------
          DENSITY CONVERGED
          -----------------
     TIME TO FORM FOCK OPERATORS=      90.5 SECONDS (       6.5 SEC/ITER)
     FOCK TIME ON FIRST ITERATION=       6.6, LAST ITERATION=       6.4
     TIME TO SOLVE SCF EQUATIONS=       0.4 SECONDS (       0.0 SEC/ITER)

 FINAL RHF ENERGY IS     -564.7214405223 AFTER  14 ITERATIONS

          ------------
          EIGENVECTORS
          ------------

                      1          2          3          4          5
                  -80.4756   -21.0414   -11.6338   -11.6338   -11.6338
                     A          A          A          A          A   
    1  LA 1  S    0.000004  -0.000018   0.000001   0.000004   0.000005
    2  LA 1  X    0.000000  -0.000000  -0.000008  -0.000008   0.000008
    3  LA 1  Y   -0.000001   0.000001  -0.000011   0.000005  -0.000006
    4  LA 1  Z    0.000005  -0.000003  -0.000001   0.000008   0.000006
    5  LA 1 XX    0.000004  -0.000013   0.000008  -0.000004   0.000002
    6  LA 1 YY    0.000003  -0.000011  -0.000010   0.000006  -0.000004
    7  LA 1 ZZ   -0.000007   0.000024   0.000002  -0.000002   0.000002
    8  LA 1 XY    0.000000  -0.000000   0.000005   0.000005  -0.000004
    9  LA 1 XZ   -0.000000   0.000001   0.000007   0.000007  -0.000007
   10  LA 1 YZ    0.000003  -0.000009   0.000005  -0.000004   0.000002
   11  LA 1 XX    0.000001   0.000074  -0.000012   0.000035   0.000027
   12  LA 1 YY    0.000001   0.000064   0.000021   0.000012   0.000035
   13  LA 1 ZZ   -0.000002  -0.000138  -0.000009  -0.000047  -0.000062
   14  LA 1 XY    0.000000   0.000002  -0.000011  -0.000010   0.000011
   15  LA 1 XZ   -0.000000  -0.000009  -0.000009  -0.000013   0.000005
   16  LA 1 YZ    0.000001   0.000055  -0.000002   0.000023   0.000022
   17  LA 1  S   -0.000011  -0.000137  -0.000019  -0.000137  -0.000168
   18  LA 1  X    0.000000  -0.000004  -0.000015  -0.000016   0.000012
   19  LA 1  Y   -0.000000   0.000024  -0.000018   0.000021   0.000004
   20  LA 1  Z    0.000002  -0.000107  -0.000010  -0.000039  -0.000055
   21  LA 1  S    0.000005   0.000062   0.000029   0.000210   0.000258
   22  LA 1  X   -0.000000   0.000002   0.000034   0.000041  -0.000024
   23  LA 1  Y    0.000000  -0.000012   0.000041  -0.000066  -0.000030
   24  LA 1  Z   -0.000001   0.000053   0.000033   0.000164   0.000216
   25  LA 1  S   -0.000019  -0.000016  -0.000003  -0.000020  -0.000025
   26  LA 1  X   -0.000001  -0.000003   0.000014   0.000013  -0.000015
   27  LA 1  Y    0.000006   0.000020   0.000021  -0.000003   0.000018
   28  LA 1  Z   -0.000026  -0.000091  -0.000001  -0.000041  -0.000045
   29  LA 1 XX   -0.000001  -0.000017   0.000008  -0.000057  -0.000058
   30  LA 1 YY   -0.000001  -0.000015  -0.000033  -0.000027  -0.000063
   31  LA 1 ZZ    0.000002   0.000031   0.000025   0.000084   0.000122
   32  LA 1 XY   -0.000000  -0.000000   0.000006   0.000003  -0.000006
   33  LA 1 XZ    0.000000   0.000002   0.000029   0.000036  -0.000020
   34  LA 1 YZ   -0.000001  -0.000013   0.000026  -0.000056  -0.000034
   35  P  2  S    1.000137   0.000074   0.000013   0.000092   0.000113
   36  P  2  S    0.000168   0.000455   0.000091   0.000651   0.000800
   37  P  2  S    0.000184   0.000596   0.000141   0.001004   0.001234
   38  P  2  S   -0.000941  -0.000186  -0.000047  -0.000333  -0.000409
   39  P  2  S   -0.000356  -0.002403   0.000030   0.000207   0.000254
   40  P  2  X   -0.000003  -0.000004   0.000357   0.000372  -0.000332
   41  P  2  Y    0.000019   0.000025   0.000482  -0.000329   0.000143
   42  P  2  Z   -0.000084  -0.000111   0.000117   0.000071   0.000238
   43  P  2  X   -0.000003  -0.000011   0.000934   0.000971  -0.000869
   44  P  2  Y    0.000017   0.000069   0.001261  -0.000857   0.000379
   45  P  2  Z   -0.000076  -0.000306   0.000305   0.000169   0.000602
   46  P  2  X    0.000002   0.000005  -0.000046  -0.000048   0.000042
   47  P  2  Y   -0.000010  -0.000028  -0.000062   0.000045  -0.000015
   48  P  2  Z    0.000043   0.000126  -0.000017  -0.000020  -0.000044
   49  P  2  X   -0.000003   0.000047  -0.000010   0.000001   0.000022
   50  P  2  Y    0.000019  -0.000296  -0.000022  -0.000056  -0.000084
   51  P  2  Z   -0.000085   0.001313   0.000040   0.000292   0.000354
   52  P  2 XX   -0.000004  -0.000064   0.000208  -0.000076   0.000115
   53  P  2 YY   -0.000003  -0.000055  -0.000223   0.000173  -0.000049
   54  P  2 ZZ    0.000007   0.000119   0.000015  -0.000096  -0.000067
   55  P  2 XY   -0.000000  -0.000002   0.000144   0.000144  -0.000132
   56  P  2 XZ    0.000000   0.000008   0.000105   0.000116  -0.000116
   57  P  2 YZ   -0.000003  -0.000047   0.000052  -0.000009   0.000058
   58  P  2 XX   -0.000027  -0.000058   0.000327   0.000028   0.000311
   59  P  2 YY   -0.000024  -0.000050  -0.000398   0.000414   0.000029
   60  P  2 ZZ    0.000051   0.000109   0.000071  -0.000442  -0.000340
   61  P  2 XY   -0.000001  -0.000002   0.000176   0.000164  -0.000145
   62  P  2 XZ    0.000003   0.000007   0.000327   0.000332  -0.000352
   63  P  2 YZ   -0.000020  -0.000044   0.000318  -0.000056   0.000285
   64  P  2 XXX   0.000001   0.000011   0.000028   0.000031  -0.000019
   65  P  2 YYY  -0.000006   0.000026   0.000026  -0.000090  -0.000070
   66  P  2 ZZZ  -0.000013  -0.000195  -0.000038  -0.000038  -0.000090
   67  P  2 XXY  -0.000001  -0.000167   0.000022   0.000050   0.000071
   68  P  2 XXZ   0.000010   0.000119   0.000025   0.000044   0.000086
   69  P  2 YYX   0.000000   0.000004   0.000005   0.000005  -0.000002
   70  P  2 YYZ   0.000008   0.000143   0.000026   0.000007   0.000035
   71  P  2 ZZX  -0.000001  -0.000018  -0.000043  -0.000046   0.000027
   72  P  2 ZZY   0.000009   0.000132  -0.000057   0.000071   0.000023
   73  P  2 XYZ   0.000000   0.000012   0.000024   0.000029  -0.000028
   74  P  2 XX    0.000001   0.000022  -0.000005   0.000004  -0.000001
   75  P  2 YY    0.000001   0.000019   0.000006  -0.000003   0.000003
   76  P  2 ZZ   -0.000002  -0.000041  -0.000001  -0.000001  -0.000002
   77  P  2 XY    0.000000   0.000001  -0.000004  -0.000004   0.000004
   78  P  2 XZ   -0.000000  -0.000003  -0.000002  -0.000003   0.000002
   79  P  2 YZ    0.000001   0.000017  -0.000000   0.000001   0.000000
   80  O  3  S    0.000000   0.975684   0.000004   0.000028   0.000034
   81  O  3  S    0.000001  -0.001097   0.000006   0.000040   0.000050
   82  O  3  S    0.000005   0.043290  -0.000002  -0.000012  -0.000015
   83  O  3  S   -0.000073   0.004770   0.000023   0.000155   0.000190
   84  O  3  X    0.000000   0.000020  -0.000005  -0.000006   0.000004
   85  O  3  Y   -0.000000  -0.000119  -0.000007   0.000007   0.000001
   86  O  3  Z    0.000001   0.000529  -0.000003  -0.000012  -0.000017
   87  O  3  X   -0.000001  -0.000021   0.000015   0.000017  -0.000012
   88  O  3  Y    0.000003   0.000131   0.000019  -0.000022  -0.000004
   89  O  3  Z   -0.000014  -0.000582   0.000010   0.000040   0.000055
[...]
            143  C  4 XXY     0.00127     0.07620
            144  C  4 XXZ     0.00083     0.07716
            145  C  4 YYX     0.00084     0.06919
            146  C  4 YYZ     0.00138     0.06650
            147  C  4 ZZX     0.00000     0.06944
            148  C  4 ZZY     0.00000     0.06666
            149  C  4 XYZ     0.00000     0.00297
            150  C  5  S      1.95557     1.55556
            151  C  5  S      0.82792     0.43087
            152  C  5  S      0.16167     0.27783
            153  C  5  S      0.32851     0.14807
            154  C  5  X      0.27203     0.21073
            155  C  5  Y      0.29427     0.22616
            156  C  5  Z      0.29377     0.22594
            157  C  5  X      0.51403     0.26552
            158  C  5  Y      0.53842     0.27939
            159  C  5  Z      0.53913     0.28043
            160  C  5  X      0.13461     0.18318
            161  C  5  Y      0.18923     0.20250
            162  C  5  Z      0.23367     0.20955
            163  C  5 XX      0.00521     0.08563
            164  C  5 YY      0.00524     0.08683
            165  C  5 ZZ      0.00426     0.08559
            166  C  5 XY      0.00417     0.00470
            167  C  5 XZ      0.00336     0.00452
            168  C  5 YZ      0.00000     0.00376
            169  C  5 XX      0.00872     0.09192
            170  C  5 YY      0.01279     0.09040
            171  C  5 ZZ      0.01157     0.08509
            172  C  5 XY      0.01044     0.02673
            173  C  5 XZ      0.00820     0.02467
            174  C  5 YZ      0.00000     0.01534
            175  C  5 XXX     0.00092     0.15935
            176  C  5 YYY     0.00073     0.17163
            177  C  5 ZZZ     0.00082     0.16840
            178  C  5 XXY     0.00125     0.07644
            179  C  5 XXZ     0.00088     0.07832
            180  C  5 YYX     0.00079     0.06904
            181  C  5 YYZ     0.00139     0.06679
            182  C  5 ZZX     0.00000     0.06980
            183  C  5 ZZY     0.00000     0.06651
            184  C  5 XYZ     0.00000     0.00289
            185  C  6  S      1.95557     1.55594
            186  C  6  S      0.82792     0.43287
            187  C  6  S      0.16167     0.27888
            188  C  6  S      0.32851     0.14892
            189  C  6  X      0.30110     0.22874
            190  C  6  Y      0.25996     0.20671
            191  C  6  Z      0.29901     0.22923
            192  C  6  X      0.54467     0.27967
            193  C  6  Y      0.50018     0.26611
            194  C  6  Z      0.54672     0.28044
            195  C  6  X      0.20135     0.20600
            196  C  6  Y      0.10750     0.17125
            197  C  6  Z      0.24865     0.21243
            198  C  6 XX      0.00567     0.08704
            199  C  6 YY      0.00604     0.09047
            200  C  6 ZZ      0.00355     0.08666
            201  C  6 XY      0.00430     0.00320
            202  C  6 XZ      0.00269     0.00454
            203  C  6 YZ      0.00000     0.00255
            204  C  6 XX      0.01076     0.08867
            205  C  6 YY      0.01484     0.10371
            206  C  6 ZZ      0.01027     0.08684
            207  C  6 XY      0.00863     0.02233
            208  C  6 XZ      0.00722     0.01976
            209  C  6 YZ      0.00000     0.01282
            210  C  6 XXX     0.00089     0.16295
            211  C  6 YYY     0.00096     0.16907
            212  C  6 ZZZ     0.00061     0.16659
            213  C  6 XXY     0.00141     0.07065
            214  C  6 XXZ     0.00094     0.07563
            215  C  6 YYX     0.00050     0.07879
            216  C  6 YYZ     0.00148     0.07314
            217  C  6 ZZX     0.00000     0.07397
            218  C  6 ZZY     0.00000     0.06397
            219  C  6 XYZ     0.00000     0.00266
            220  H  7  S      0.25293     0.19506
            221  H  7  S      0.45216     0.24470
            222  H  7  S      0.06173     0.11912
            223  H  7  X      0.00159     0.00204
            224  H  7  Y      0.00745     0.01101
            225  H  7  Z      0.00172     0.00218
            226  H  7  X      0.01046     0.02848
            227  H  7  Y      0.00488     0.04779
            228  H  7  Z      0.00869     0.02993
            229  H  7 XX      0.00031     0.06919
            230  H  7 YY      0.00065     0.11677
            231  H  7 ZZ      0.00101     0.06977
            232  H  7 XY      0.00009     0.00483
            233  H  7 XZ      0.00084     0.00015
            234  H  7 YZ      0.00000     0.00514
            235  H  8  S      0.24744     0.19035
            236  H  8  S      0.44745     0.23963
            237  H  8  S      0.04574     0.11410
            238  H  8  X      0.00160     0.00208
            239  H  8  Y      0.00184     0.00256
            240  H  8  Z      0.00733     0.01059
            241  H  8  X      0.00958     0.02877
            242  H  8  Y      0.00776     0.02886
            243  H  8  Z      0.00632     0.04767
            244  H  8 XX      0.00091     0.06793
            245  H  8 YY      0.00012     0.07031
            246  H  8 ZZ      0.00010     0.11225
            247  H  8 XY      0.00094     0.00020
            248  H  8 XZ      0.00080     0.00489
            249  H  8 YZ      0.00000     0.00539
            250  H  9  S      0.25293     0.18740
            251  H  9  S      0.45213     0.24263
            252  H  9  S      0.06168     0.11943
            253  H  9  X      0.00587     0.00775
            254  H  9  Y      0.00248     0.00353
            255  H  9  Z      0.00241     0.00337
            256  H  9  X      0.00983     0.04417
            257  H  9  Y      0.00694     0.03117
            258  H  9  Z      0.00726     0.03219
            259  H  9 XX      0.00046     0.09968
            260  H  9 YY      0.00090     0.07525
            261  H  9 ZZ      0.00063     0.07441
            262  H  9 XY      0.00065     0.00525
            263  H  9 XZ      0.00025     0.00527
            264  H  9 YZ      0.00000     0.00163
            265  H 10  S      0.25293     0.18672
            266  H 10  S      0.45213     0.24240
            267  H 10  S      0.06166     0.11939
            268  H 10  X      0.00563     0.00743
            269  H 10  Y      0.00246     0.00345
            270  H 10  Z      0.00268     0.00374
            271  H 10  X      0.01023     0.04364
            272  H 10  Y      0.00698     0.03106
            273  H 10  Z      0.00682     0.03293
            274  H 10 XX      0.00051     0.09775
            275  H 10 YY      0.00088     0.07462
            276  H 10 ZZ      0.00060     0.07650
            277  H 10 XY      0.00062     0.00496
            278  H 10 XZ      0.00027     0.00535
            279  H 10 YZ      0.00000     0.00191
            280  H 11  S      0.24744     0.19040
            281  H 11  S      0.44745     0.23959
            282  H 11  S      0.04574     0.11407
            283  H 11  X      0.00163     0.00217
            284  H 11  Y      0.00184     0.00255
            285  H 11  Z      0.00730     0.01052
            286  H 11  X      0.00995     0.02889
            287  H 11  Y      0.00777     0.02886
            288  H 11  Z      0.00594     0.04757
            289  H 11 XX      0.00089     0.06813
            290  H 11 YY      0.00013     0.07032
            291  H 11 ZZ      0.00010     0.11209
            292  H 11 XY      0.00096     0.00022
            293  H 11 XZ      0.00079     0.00492
            294  H 11 YZ      0.00000     0.00537
            295  H 12  S      0.25293     0.19506
            296  H 12  S      0.45216     0.24470
            297  H 12  S      0.06174     0.11909
            298  H 12  X      0.00158     0.00203
            299  H 12  Y      0.00745     0.01101
            300  H 12  Z      0.00172     0.00219
            301  H 12  X      0.01056     0.02858
            302  H 12  Y      0.00492     0.04784
            303  H 12  Z      0.00855     0.02982
            304  H 12 XX      0.00031     0.06921
            305  H 12 YY      0.00064     0.11677
            306  H 12 ZZ      0.00101     0.06975
            307  H 12 XY      0.00008     0.00481
            308  H 12 XZ      0.00083     0.00014
            309  H 12 YZ      0.00000     0.00515
            310  H 13  S      0.25293     0.18696
            311  H 13  S      0.45215     0.24191
            312  H 13  S      0.06172     0.11899
            313  H 13  X      0.00540     0.00690
            314  H 13  Y      0.00262     0.00396
            315  H 13  Z      0.00274     0.00387
            316  H 13  X      0.00434     0.04121
            317  H 13  Y      0.01275     0.03347
            318  H 13  Z      0.00694     0.03268
            319  H 13 XX      0.00050     0.09591
            320  H 13 YY      0.00073     0.07617
            321  H 13 ZZ      0.00072     0.07689
            322  H 13 XY      0.00061     0.00488
            323  H 13 XZ      0.00032     0.00523
            324  H 13 YZ      0.00000     0.00211
            325  H 14  S      0.25293     0.18773
            326  H 14  S      0.45214     0.24220
            327  H 14  S      0.06169     0.11901
            328  H 14  X      0.00564     0.00724
            329  H 14  Y      0.00265     0.00406
            330  H 14  Z      0.00247     0.00350
            331  H 14  X      0.00402     0.04196
            332  H 14  Y      0.01275     0.03362
            333  H 14  Z      0.00725     0.03177
            334  H 14 XX      0.00046     0.09795
            335  H 14 YY      0.00076     0.07688
            336  H 14 ZZ      0.00075     0.07471
            337  H 14 XY      0.00062     0.00518
            338  H 14 XZ      0.00029     0.00516
            339  H 14 YZ      0.00000     0.00183
            340  H 15  S      0.24743     0.19060
            341  H 15  S      0.44745     0.23972
            342  H 15  S      0.04574     0.11411
            343  H 15  X      0.00163     0.00209
            344  H 15  Y      0.00199     0.00306
            345  H 15  Z      0.00716     0.01020
            346  H 15  X      0.00792     0.02793
            347  H 15  Y      0.01140     0.03084
            348  H 15  Z      0.00435     0.04722
            349  H 15 XX      0.00085     0.06729
            350  H 15 YY      0.00019     0.07239
            351  H 15 ZZ      0.00011     0.11125
            352  H 15 XY      0.00077     0.00028
            353  H 15 XZ      0.00094     0.00503
            354  H 15 YZ      0.00000     0.00531

          ----- MULLIKEN ATOMIC OVERLAP POPULATIONS -----
          (OFF-DIAGONAL ELEMENTS NEED TO BE MULTIPLIED BY 2)

             1           2           3           4           5

    1    8.5805650
    2   -0.0114747  13.2611449
    3    0.0254478   0.2149632   8.5850826
    4    0.0000350   0.3471069  -0.0165584   5.0100606
    5    0.0000349   0.3471073  -0.0165596  -0.0317245   5.0100709
    6    0.0000347   0.3471064  -0.0165570  -0.0317096  -0.0317122
    7    0.0005910  -0.0168208   0.0008998   0.3646756  -0.0027030
    8    0.0004542  -0.0134782   0.0011855   0.3583723  -0.0003949
    9    0.0005874  -0.0168146   0.0008978   0.3647057   0.0023973
   10    0.0005872  -0.0168159   0.0008974   0.0023973   0.3647027
   11    0.0004540  -0.0134733   0.0011856  -0.0003924   0.3583688
   12    0.0005911  -0.0168215   0.0009001  -0.0027061   0.3646765
   13    0.0005899  -0.0168161   0.0008992   0.0023981  -0.0027109
   14    0.0005883  -0.0168133   0.0008980  -0.0027080   0.0023978
   15    0.0004551  -0.0134929   0.0011852  -0.0003923  -0.0003894

             6           7           8           9          10

    6    5.0100179
    7    0.0023988   0.4847259
    8   -0.0003911  -0.0106923   0.4540550
    9   -0.0027098  -0.0190182  -0.0106938   0.4846134
   10   -0.0027040  -0.0000048   0.0000133  -0.0000709   0.4845934
   11   -0.0003951  -0.0002035  -0.0000553   0.0000135  -0.0106933
   12    0.0023985   0.0006973  -0.0002029  -0.0000049  -0.0190165
   13    0.3646925  -0.0000710   0.0000130  -0.0000045   0.0007018
   14    0.3646998  -0.0000046  -0.0002027   0.0007033  -0.0000043
   15    0.3583772   0.0000132  -0.0000596  -0.0002036  -0.0002050

            11          12          13          14          15

   11    0.4540578
   12   -0.0106937   0.4847388
   13   -0.0002012  -0.0000050   0.4846939
   14    0.0000127  -0.0000710  -0.0190157   0.4846344
   15   -0.0000587   0.0000136  -0.0106945  -0.0106950   0.4540703

          TOTAL MULLIKEN AND LOWDIN ATOMIC POPULATIONS
       ATOM         MULL.POP.    CHARGE          LOW.POP.     CHARGE
    1 LA            8.599541    2.400459         8.771836    2.228164
    2 P            14.364607    0.635393        14.311415    0.688585
    3 O             8.784767   -0.784767         8.414667   -0.414667
    4 C             6.363560   -0.363560         6.028992   -0.028992
    5 C             6.363562   -0.363562         6.030068   -0.030068
    6 C             6.363547   -0.363547         6.043178   -0.043178
    7 H             0.804483    0.195517         0.946170    0.053830
    8 H             0.777923    0.222077         0.925581    0.074419
    9 H             0.804398    0.195602         0.933147    0.066853
   10 H             0.804378    0.195622         0.931854    0.068146
   11 H             0.777926    0.222074         0.925675    0.074325
   12 H             0.804494    0.195506         0.946153    0.053847
   13 H             0.804470    0.195530         0.931139    0.068861
   14 H             0.804420    0.195580         0.932796    0.067204
   15 H             0.777924    0.222076         0.927327    0.072673

          MULLIKEN SPHERICAL HARMONIC POPULATIONS
       ATOM           S       P       D      F      G      H      I    TOTAL
    1 LA            2.01    6.10    0.49   0.00   0.00   0.00   0.00    8.60
    2 P             5.34    8.38    0.57   0.07   0.00   0.00   0.00   14.36
    3 O             3.78    4.97    0.04   0.00   0.00   0.00   0.00    8.78
    4 C             3.27    3.01    0.07   0.01   0.00   0.00   0.00    6.36
    5 C             3.27    3.01    0.07   0.01   0.00   0.00   0.00    6.36
    6 C             3.27    3.01    0.07   0.01   0.00   0.00   0.00    6.36
    7 H             0.77    0.03    0.00   0.00   0.00   0.00   0.00    0.80
    8 H             0.74    0.03    0.00   0.00   0.00   0.00   0.00    0.78
    9 H             0.77    0.03    0.00   0.00   0.00   0.00   0.00    0.80
   10 H             0.77    0.03    0.00   0.00   0.00   0.00   0.00    0.80
   11 H             0.74    0.03    0.00   0.00   0.00   0.00   0.00    0.78
   12 H             0.77    0.03    0.00   0.00   0.00   0.00   0.00    0.80
   13 H             0.77    0.03    0.00   0.00   0.00   0.00   0.00    0.80
   14 H             0.77    0.03    0.00   0.00   0.00   0.00   0.00    0.80
   15 H             0.74    0.03    0.00   0.00   0.00   0.00   0.00    0.78

          -------------------------------
          BOND ORDER AND VALENCE ANALYSIS     BOND ORDER THRESHOLD=0.050
          -------------------------------

                   BOND                       BOND                       BOND
  ATOM PAIR DIST  ORDER      ATOM PAIR DIST  ORDER      ATOM PAIR DIST  ORDER
    1   3  2.100  0.678        2   3  1.700  0.775        2   4  1.772  1.018
    2   5  1.772  1.018        2   6  1.772  1.018        4   7  1.089  0.876
    4   8  1.095  0.857        4   9  1.089  0.876        5  10  1.089  0.876
    5  11  1.095  0.857        5  12  1.089  0.876        6  13  1.089  0.876
    6  14  1.089  0.876        6  15  1.095  0.857

                       TOTAL       BONDED        FREE
      ATOM            VALENCE     VALENCE     VALENCE
    1 LA                0.662       0.746      -0.083
    2 P                 4.577       4.224       0.353
    3 O                 2.053       1.489       0.564
    4 C                 3.933       3.641       0.292
    5 C                 3.933       3.641       0.292
    6 C                 3.933       3.641       0.292
    7 H                 0.977       0.926       0.051
    8 H                 0.967       0.917       0.050
    9 H                 0.977       0.926       0.051
   10 H                 0.977       0.926       0.051
   11 H                 0.967       0.917       0.050
   12 H                 0.977       0.926       0.051
   13 H                 0.977       0.926       0.051
   14 H                 0.977       0.926       0.051
   15 H                 0.967       0.917       0.050

          ---------------------
          ELECTROSTATIC MOMENTS
          ---------------------

 POINT   1           X           Y           Z (BOHR)    CHARGE
                -0.228950    1.514987   -4.849832        3.00 (A.U.)
         DX          DY          DZ         /D/  (DEBYE)
    -0.041176    0.258911   -1.153942    1.183348
 ...... END OF PROPERTY EVALUATION ......
 CPU     0: STEP CPU TIME=     0.20 TOTAL CPU TIME=     1509.1 (   25.2 MIN)
 TOTAL WALL CLOCK TIME=     1532.5 SECONDS, CPU UTILIZATION IS  98.47%
  $VIB   
          IVIB=   0 IATOM=   0 ICOORD=   0 E=     -565.6105470547
 -1.969902369E-07 1.195604348E-06 2.751276340E-07-8.504423467E-07 1.156257710E-05
 -4.561156443E-05 2.168351983E-06 2.563139534E-06 3.320533256E-06 1.890276222E-05
 -1.423205725E-05-2.800159619E-06-1.968310914E-05-1.254141390E-05-3.826231359E-06
 -5.458208669E-07 2.268218296E-05-7.510931367E-06 4.998093650E-06 7.581758739E-07
  4.300445330E-06-5.896430678E-06 9.720403339E-06 1.060281899E-06 1.290167509E-06
 -1.375151267E-05 1.104743873E-05-3.769386083E-07-1.540910303E-05 1.285983653E-05
  5.159940308E-06 1.048846941E-05 1.054575545E-06-5.491792910E-06 7.495909972E-07
  6.007012011E-06 6.389543719E-06 2.622321249E-06 8.915125948E-06-8.204706334E-06
  3.064539757E-06 1.427721454E-05 2.337371728E-06-9.472917725E-06-3.368704639E-06
 -4.117591451E-02 2.589106225E-01-1.153941794E+00
 ......END OF GEOMETRY SEARCH......
 CPU     0: STEP CPU TIME=     0.01 TOTAL CPU TIME=     1509.1 (   25.2 MIN)
 TOTAL WALL CLOCK TIME=     1532.6 SECONDS, CPU UTILIZATION IS  98.47%
               2991967  WORDS OF DYNAMIC MEMORY USED
 EXECUTION OF GAMESS TERMINATED NORMALLY Thu Jun  9 11:26:41 2016
 DDI: 44487344 bytes (42.4 MB / 5 MWords) used by master data server.

 ----------------------------------------
 CPU timing information for all processes
 ========================================
 0: 1506.790 + 2.400 = 1509.191
 1: 1506.967 + 2.256 = 1509.224
 2: 1507.393 + 2.356 = 1509.750
 3: 1507.344 + 2.389 = 1509.734
 4: 1507.779 + 2.443 = 1510.223
 5: 1506.435 + 2.363 = 1508.799
 6: 1509.300 + 2.369 = 1511.670
 7: 1508.56 + 2.340 = 1510.397
 8: 1508.967 + 2.447 = 1511.415
 9: 1509.90 + 2.300 = 1511.391
 10: 1508.519 + 2.421 = 1510.941
 11: 1508.304 + 2.496 = 1510.801
 12: 1508.231 + 2.338 = 1510.570
 13: 1507.689 + 2.319 = 1510.09
 14: 1508.578 + 2.312 = 1510.891
 15: 1508.411 + 1.868 = 1510.280
 16: 0.14 + 0.73 = 0.88
 17: 0.19 + 0.80 = 0.100
 18: 0.17 + 0.83 = 0.101
 19: 0.06 + 0.87 = 0.94
 20: 0.15 + 0.80 = 0.96
 21: 0.08 + 0.68 = 0.77
 22: 0.13 + 0.77 = 0.91
 23: 0.10 + 0.81 = 0.92
 24: 0.15 + 0.70 = 0.86
 25: 0.11 + 0.80 = 0.92
 26: 0.15 + 0.73 = 0.89
 27: 0.19 + 0.67 = 0.87
 28: 0.15 + 0.75 = 0.91
 29: 0.19 + 0.77 = 0.97
 30: 0.11 + 0.84 = 0.96
 31: 0.12 + 0.75 = 0.88
 ----------------------------------------
unset echo
----- accounting info -----
Files used on the master node node218 were:
-rw-r--r-- 1 fzahari quantum     1998 Jun  9 11:01 /local/scratch/fzahari/196591.share/bnd_var-021.F05
-rw-r--r-- 1 fzahari quantum 17178000 Jun  9 11:26 /local/scratch/fzahari/196591.share/bnd_var-021.F10
-rw-r--r-- 1 fzahari quantum        8 Jun  9 11:01 /local/scratch/fzahari/196591.share/bnd_var-021.nodes.mpd
ls: No match.
ls: No match.
ls: No match.
Thu Jun  9 11:26:43 CDT 2016
24128.681u 43.372s 25:36.91 1572.7%	0+0k 104+239744io 0pf+0w
