----- GAMESS execution script 'rungms' -----
This job is running on host node201
under operating system Linux at Thu Jun 9 11:10:04 CDT 2016
PBS has assigned the following compute nodes to this run:
node201
Available scratch disk space (Kbyte units) at beginning of the job is
Filesystem           1K-blocks      Used Available Use% Mounted on
/dev/sda7            2670838024   1090888 2534076352   1% /local
GAMESS temporary binary files will be written to /local/scratch/fzahari/196594.share
GAMESS supplementary output files will be written to /work1/quantum/fzahari/scr
Copying input file bnd_var-024.inp to your run's scratch directory...
cp bnd_var-024.inp /local/scratch/fzahari/196594.share/bnd_var-024.F05
unset echo
setenv I_MPI_WAIT_MODE enable
setenv I_MPI_PIN disable
setenv I_MPI_DEBUG 0
setenv I_MPI_STATS 0
setenv I_MPI_FABRICS dapl
setenv I_MPI_DAT_LIBRARY libdat2.so
unset echo
MPI kickoff will run GAMESS on 16 cores in 1 nodes.
The binary to be executed is /home/mschmidt/gamess/gamess.132.x
MPI will run 16 compute processes and 16 data servers,
    placing 16 of each process type onto each node.
The scratch disk space on each node is /local/scratch/fzahari/196594.share, with free space
Filesystem           1K-blocks      Used Available Use% Mounted on
/dev/sda7            2670838024   1090912 2534076328   1% /local
setenv I_MPI_HYDRA_ENV all
setenv I_MPI_PERHOST 32
unset echo
mpiexec.hydra -f /local/scratch/fzahari/196594.share/bnd_var-024.processes.mpd -n 32 /home/mschmidt/gamess/gamess.132.x
          ******************************************************
          *         GAMESS VERSION =  5 DEC 2014 (R1)          *
          *             FROM IOWA STATE UNIVERSITY             *
          * M.W.SCHMIDT, K.K.BALDRIDGE, J.A.BOATZ, S.T.ELBERT, *
          *   M.S.GORDON, J.H.JENSEN, S.KOSEKI, N.MATSUNAGA,   *
          *          K.A.NGUYEN, S.J.SU, T.L.WINDUS,           *
          *       TOGETHER WITH M.DUPUIS, J.A.MONTGOMERY       *
          *         J.COMPUT.CHEM.  14, 1347-1363(1993)        *
          **************** 64 BIT INTEL VERSION ****************

  SINCE 1993, STUDENTS AND POSTDOCS WORKING AT IOWA STATE UNIVERSITY
  AND ALSO IN THEIR VARIOUS JOBS AFTER LEAVING ISU HAVE MADE IMPORTANT
  CONTRIBUTIONS TO THE CODE:
     IVANA ADAMOVIC, CHRISTINE AIKENS, YURI ALEXEEV, POOJA ARORA,
     ANDREY ASADCHEV, ROB BELL, PRADIPTA BANDYOPADHYAY, JONATHAN BENTZ,
     BRETT BODE, KURT BRORSEN, CALEB CARLIN, GALINA CHABAN, WEI CHEN,
     CHEOL HO CHOI, PAUL DAY, ALBERT DEFUSCO, NUWAN DESILVA, TIM DUDLEY,
     DMITRI FEDOROV, GRAHAM FLETCHER, MARK FREITAG, KURT GLAESEMANN,
     DAN KEMP, GRANT MERRILL, NORIYUKI MINEZAWA, JONATHAN MULLIN,
     TAKESHI NAGATA, SEAN NEDD, HEATHER NETZLOFF, BOSILJKA NJEGIC, RYAN OLSON,
     MIKE PAK, SPENCER PRUITT, LUKE ROSKOP, JIM SHOEMAKER, LYUDMILA SLIPCHENKO,
     TONY SMITH, SAROM SOK, JIE SONG, TETSUYA TAKETSUGU, SIMON WEBB,
     PENG XU, SOOHAENG YOO, FEDERICO ZAHARIEV

  ADDITIONAL CODE HAS BEEN PROVIDED BY COLLABORATORS IN OTHER GROUPS:
     IOWA STATE UNIVERSITY:
          JOE IVANIC, AARON WEST, LAIMUTIS BYTAUTAS, KLAUS RUEDENBERG
     UNIVERSITY OF TOKYO: KIMIHIKO HIRAO, TAKAHITO NAKAJIMA,
          TAKAO TSUNEDA, MUNEAKI KAMIYA, SUSUMU YANAGISAWA,
          KIYOSHI YAGI, MAHITO CHIBA, SEIKEN TOKURA, NAOAKI KAWAKAMI
     UNIVERSITY OF AARHUS: FRANK JENSEN
     UNIVERSITY OF IOWA: VISVALDAS KAIRYS, HUI LI
     NATIONAL INST. OF STANDARDS AND TECHNOLOGY: WALT STEVENS, DAVID GARMER
     UNIVERSITY OF PISA: BENEDETTA MENNUCCI, JACOPO TOMASI
     UNIVERSITY OF MEMPHIS: HENRY KURTZ, PRAKASHAN KORAMBATH
     UNIVERSITY OF ALBERTA: TOBY ZENG, MARIUSZ KLOBUKOWSKI
     UNIVERSITY OF NEW ENGLAND: MARK SPACKMAN
     MIE UNIVERSITY: HIROAKI UMEDA
     NAT. INST. OF ADVANCED INDUSTRIAL SCIENCE AND TECHNOLOGY: KAZUO KITAURA
     MICHIGAN STATE UNIVERSITY:
          KAROL KOWALSKI, MARTA WLOCH, JEFFREY GOUR, JESSE LUTZ,
          WEI LI, PIOTR PIECUCH
     UNIVERSITY OF SILESIA: MONIKA MUSIAL, STANISLAW KUCHARSKI
     FACULTES UNIVERSITAIRES NOTRE-DAME DE LA PAIX:
          OLIVIER QUINET, BENOIT CHAMPAGNE
     UNIVERSITY OF CALIFORNIA - SANTA BARBARA: BERNARD KIRTMAN
     INSTITUTE FOR MOLECULAR SCIENCE:
          KAZUYA ISHIMURA, MICHIO KATOUDA, AND SHIGERU NAGASE
     UNIVERSITY OF NOTRE DAME: ANNA POMOGAEVA, DAN CHIPMAN
     KYUSHU UNIVERSITY:
          HARUYUKI NAKANO,
          FENG LONG GU, JACEK KORCHOWIEC, MARCIN MAKOWSKI, AND YURIKO AOKI,
          HIROTOSHI MORI AND EISAKU MIYOSHI
     PENNSYLVANIA STATE UNIVERSITY:
          TZVETELIN IORDANOV, CHET SWALINA, JONATHAN SKONE,
          SHARON HAMMES-SCHIFFER
     WASEDA UNIVERSITY:
          MASATO KOBAYASHI, TOMOKO AKAMA, TSUGUKI TOUMA,
          TAKESHI YOSHIKAWA, YASUHIRO IKABATA, HIROMI NAKAI
     NANJING UNIVERSITY: SHUHUA LI
     UNIVERSITY OF NEBRASKA:
          PEIFENG SU, DEJUN SI, NANDUN THELLAMUREGE, YALI WANG, HUI LI
     UNIVERSITY OF ZURICH: ROBERTO PEVERATI, KIM BALDRIDGE
     N. COPERNICUS UNIVERSITY AND JACKSON STATE UNIVERSITY:
          MARIA BARYSZ
     UNIVERSITY OF COPENHAGEN: CASPER STEINMANN
     TOKYO INSTITUTE OF TECHNOLOGY: HIROYA NAKATA
     NAGOYA UNIVERSITY: YOSHIO NISHIMOTO, STEPHAN IRLE


 PARALLEL VERSION RUNNING ON       16 PROCESSORS IN        1 NODES.

 EXECUTION OF GAMESS BEGUN Thu Jun  9 11:10:05 2016

            ECHO OF THE FIRST FEW INPUT CARDS -
 INPUT CARD> $ZMAT DLC=.T. AUTO=.T. $END                                                    
 INPUT CARD> $ZMAT IFZMAT(1)=1, 1 , 3  FVALUE(1)= 2.4 $END                                  
 INPUT CARD> $CONTRL COORD=UNIQUE NZVAR= 39 $END                                            
 INPUT CARD> $CONTRL ICHARG=+3 MULT=1                                                       
 INPUT CARD>         MPLEVL=2                                                               
 INPUT CARD>         SCFTYP=RHF                                                             
 INPUT CARD>         MAXIT=200 ISPHER=1 ICUT=11                                             
 INPUT CARD>         RUNTYP=OPTIMIZE                                                        
 INPUT CARD>         PP=READ                                                                
 INPUT CARD>         $END                                                                   
 INPUT CARD> $SCF    DIRSCF=.T. FDIFF=.F. $END                                              
 INPUT CARD> $TRANS  DIRTRF=.T. $END                                                        
 INPUT CARD> $SYSTEM MWORDS=300 MEMDDI=300 $END                                             
 INPUT CARD> $GUESS  GUESS=HUCKEL $END                                                      
 INPUT CARD> $BASIS  BASNAM(1)=METAL,                                                       
 INPUT CARD>                   LIGP,                                                        
 INPUT CARD>                   LIGO,                                                        
 INPUT CARD>                   LIGC,                                                        
 INPUT CARD>                   LIGC,                                                        
 INPUT CARD>                   LIGC,                                                        
 INPUT CARD>                   LIGH,                                                        
 INPUT CARD>                   LIGH,                                                        
 INPUT CARD>                   LIGH,                                                        
 INPUT CARD>                   LIGH,                                                        
 INPUT CARD>                   LIGH,                                                        
 INPUT CARD>                   LIGH,                                                        
 INPUT CARD>                   LIGH,                                                        
 INPUT CARD>                   LIGH,                                                        
 INPUT CARD>                   LIGH                                                         
 INPUT CARD> $END                                                                           
 INPUT CARD> $DATA                                                                          
 INPUT CARD>                                                                                
 INPUT CARD> C1                                                                             
 INPUT CARD> LA 57.0 -0.1739353441 1.134168269 -4.0490164368                                
 INPUT CARD> P 15.0 -0.029737826063 0.225131695178 0.00446948676239                         
 INPUT CARD> O 8.0 -0.091550349063 0.609372615078 -1.70854592124                            
 INPUT CARD> C 6.0 -1.47922972216 0.937587458978 0.740146362162                             
 INPUT CARD> C 6.0 1.46278912974 0.947876328478 0.636880674362                              
 INPUT CARD> C 6.0 -0.018807846663 -1.54514835272 0.131232239962                            
 INPUT CARD> H 1.0 -1.48097838896 2.02042052998 0.626774964162                              
 INPUT CARD> H 1.0 -1.44249712586 0.701384681378 1.80803888606                              
 INPUT CARD> H 1.0 -2.38362431096 0.499882324978 0.320995847162                             
 INPUT CARD> H 1.0 2.33885761834 0.515909226278 0.156050392562                              
 INPUT CARD> H 1.0 1.50197492904 0.711314457378 1.70462369826                               
 INPUT CARD> H 1.0 1.44955198854 2.03063000328 0.524021671662                               
 INPUT CARD> H 1.0 0.863382653037 -1.96433969792 -0.349835065538                            
 INPUT CARD> H 1.0 -0.930189348363 -1.97119484072 -0.284966964738                           
 INPUT CARD> H 1.0 0.020702342037 -1.78649517722 1.19780239386                              
 INPUT CARD> $END                                                                           
 INPUT CARD>!                                                                               
  300000000 WORDS OF MEMORY AVAILABLE

     BASIS OPTIONS
     -------------
     GBASIS=             IGAUSS=       0      POLAR=NONE    
     NDFUNC=       0     NFFUNC=       0     DIFFSP=       F
     NPFUNC=       0      DIFFS=       F     BASNAM=METAL   

 USING BASNAM FOR ATOM CUSTOMIZED BASIS CONSTRUCTION
     ----------------
     ATOM  BASIS NAME
     ----------------
       1   METAL   
       2   LIGP    
       3   LIGO    
       4   LIGC    
       5   LIGC    
       6   LIGC    
       7   LIGH    
       8   LIGH    
       9   LIGH    
      10   LIGH    
      11   LIGH    
      12   LIGH    
      13   LIGH    
      14   LIGH    
      15   LIGH    
 NOW LOCATING ALL   15 BASIS SETS IN YOUR INPUT FILE...
 FOUND BASIS SET  $METAL 
  SBKJC                        
                               
  $END                         
 FOUND BASIS SET  $LIGP  
  CCT                          
                               
  $END                         
 FOUND BASIS SET  $LIGO  
  CCT                          
                               
  $END                         
 FOUND BASIS SET  $LIGC  
  CCT                          
                               
  $END                         
 FOUND BASIS SET  $LIGH  
  CCT                          
                               
  $END                         
    5 UNIQUE ATOM CUSTOMIZED BASIS SETS WERE FOUND.

     SEARCHING FOR $MCP
     $MCP GROUP NOT FOUND


     RUN TITLE
     ---------
                                                                                 

 THE POINT GROUP OF THE MOLECULE IS C1      
 THE ORDER OF THE PRINCIPAL AXIS IS     0

 ATOM      ATOMIC                      COORDINATES (BOHR)
           CHARGE         X                   Y                   Z
 LA         57.0    -0.3286901399        2.1432672524       -7.6515315853
 P          15.0    -0.0561963427        0.4254372150        0.0084461053
 O           8.0    -0.1730050738        1.1515472669       -3.2286836286
 C           6.0    -2.7953388478        1.7717833870        1.3986738153
 C           6.0     2.7642706330        1.7912265311        1.2035299614
 C           6.0    -0.0355416766       -2.9199069970        0.2479929743
 H           1.0    -2.7986433489        3.8180411816        1.1844329382
 H           1.0    -2.7259243060        1.3254248598        3.4166980698
 H           1.0    -4.5043968054        0.9446406203        0.6065941943
 H           1.0     4.4198000230        0.9749270722        0.2948924822
 H           1.0     2.8383210563        1.3441894155        3.2212717019
 H           1.0     2.7392560633        3.8373342886        0.9902573711
 H           1.0     1.6315566368       -3.7120637759       -0.6610924148
 H           1.0    -1.7578029851       -3.7250181174       -0.5385094789
 H           1.0     0.0391217538       -3.3759863633        2.2635183118

          INTERNUCLEAR DISTANCES (ANGS.)
          ------------------------------

                1 LA         2 P          3 O          4 C          5 C     

   1 LA      0.0000000    4.1566680    2.4000000 *  4.9677478    4.9670115  
   2 P       4.1566680    0.0000000    1.7566683 *  1.7747790 *  1.7748072 *
   3 O       2.4000000 *  1.7566683 *  0.0000000    2.8336325 *  2.8340046 *
   4 C       4.9677478    1.7747790 *  2.8336325 *  0.0000000    2.9438486 *
   5 C       4.9670115    1.7748072 *  2.8340046 *  2.9438486 *  0.0000000  
   6 C       4.9676233    1.7748464 *  2.8340846 *  2.9440764 *  2.9438040 *
   7 H       4.9352639    2.3909047 *  3.0619096    1.0887532 *  3.1330848  
   8 H       6.0084647    2.3399932 *  3.7682744    1.0943196 *  3.1421422  
   9 H       4.9378185    2.3909116 *  3.0634345    1.0886701 *  3.8852771  
  10 H       4.9375054    2.3911865 *  3.0646921    3.8854564    1.0887099 *
  11 H       6.0076497    2.3394534 *  3.7682147    3.1414960    1.0943364 *
  12 H       4.9347778    2.3912459 *  3.0625687    3.1335625    1.0887001 *
  13 H       4.9356583    2.3910209 *  3.0630030    3.8854953    3.1327142  
  14 H       4.9379417    2.3913253 *  3.0641835    3.1326214    3.8855020  
  15 H       6.0081001    2.3394936 *  3.7682415    3.1432263    3.1418203  

                6 C          7 H          8 H          9 H         10 H     

   1 LA      4.9676233    4.9352639    6.0084647    4.9378185    4.9375054  
   2 P       1.7748464 *  2.3909047 *  2.3399932 *  2.3909116 *  2.3911865 *
   3 O       2.8340846 *  3.0619096    3.7682744    3.0634345    3.0646921  
   4 C       2.9440764 *  1.0887532 *  1.0943196 *  1.0886701 *  3.8854564  
   5 C       2.9438040 *  3.1330848    3.1421422    3.8852771    1.0887099 *
   6 C       0.0000000    3.8854584    3.1441187    3.1321746    3.1316387  
   7 H       3.8854584    0.0000000    1.7710790 *  1.7945214 *  4.1323459  
   8 H       3.1441187    1.7710790 *  0.0000000    1.7713330 *  4.1306308  
   9 H       3.1321746    1.7945214 *  1.7713330 *  0.0000000    4.7253888  
  10 H       3.1316387    4.1323459    4.1306308    4.7253888    0.0000000  
  11 H       3.1432412    3.4312574    2.9463043 *  4.1300134    1.7710548 *
  12 H       3.8854285    2.9323490 *  3.4321337    4.1325112    1.7946159 *
  13 H       1.0887641 *  4.7252629    4.1327458    4.1310360    2.9299456 *
  14 H       1.0887395 *  4.1312995    3.4330473    2.9301683 *  4.1312045  
  15 H       1.0942492 *  4.1320364    2.9500657 *  3.4317777    3.4293086  

               11 H         12 H         13 H         14 H         15 H     

   1 LA      6.0076497    4.9347778    4.9356583    4.9379417    6.0081001  
   2 P       2.3394534 *  2.3912459 *  2.3910209 *  2.3913253 *  2.3394936 *
   3 O       3.7682147    3.0625687    3.0630030    3.0641835    3.7682415  
   4 C       3.1414960    3.1335625    3.8854953    3.1326214    3.1432263  
   5 C       1.0943364 *  1.0887001 *  3.1327142    3.8855020    3.1418203  
   6 C       3.1432412    3.8854285    1.0887641 *  1.0887395 *  1.0942492 *
   7 H       3.4312574    2.9323490 *  4.7252629    4.1312995    4.1320364  
   8 H       2.9463043 *  3.4321337    4.1327458    3.4330473    2.9500657 *
   9 H       4.1300134    4.1325112    4.1310360    2.9301683 *  3.4317777  
  10 H       1.7710548 *  1.7946159 *  2.9299456 *  4.1312045    3.4293086  
  11 H       0.0000000    1.7712038 *  3.4333258    4.1315554    2.9478957 *
  12 H       1.7712038 *  0.0000000    4.1312229    4.7256993    4.1311060  
  13 H       3.4333258    4.1312229    0.0000000    1.7947578 *  1.7711354 *
  14 H       4.1315554    4.7256993    1.7947578 *  0.0000000    1.7711335 *
  15 H       2.9478957 *  4.1311060    1.7711354 *  1.7711335 *  0.0000000  

  * ... LESS THAN  3.000


     ATOMIC BASIS SET
     ----------------
 THE CONTRACTED PRIMITIVE FUNCTIONS HAVE BEEN UNNORMALIZED
 THE CONTRACTED BASIS FUNCTIONS ARE NOW NORMALIZED TO UNITY

  SHELL TYPE  PRIMITIVE        EXPONENT          CONTRACTION COEFFICIENT(S)

 LA        

      1   L       1             9.1730000   -0.054833023521   -0.009797991527
      1   L       2             3.1200000    0.676604290237    0.231261800020
      1   L       3             2.1040000   -1.034429443730   -0.601214480110
      1   L       4             1.3200000   -0.518907222591    0.195188831214
      1   L       5             0.4960000    1.631603699894    1.076136069429

      2   D       6             1.2380000   -0.053797021791
      2   D       7             0.6061000    0.380144153981
      2   D       8             0.2518000    0.720349291785

      3   D       9             0.0978700    1.000000000000

      4   L      10             0.6182000   -0.107095028128   -0.051868986063
      4   L      11             0.0454600    1.033448271434    1.008107729120

      5   L      12             0.0177500    1.000000000000    1.000000000000

      6   L      13             0.2004000    1.000000000000    1.000000000000

      7   D      14             0.0353600    1.000000000000

 P         

      8   S      15        312400.0000000    0.000057689641
      8   S      16         46800.0000000    0.000448246591
      8   S      17         10650.0000000    0.002349131061
      8   S      18          3018.0000000    0.009781571802
      8   S      19           986.8000000    0.034142936511
      8   S      20           357.4000000    0.100192955985
      8   S      21           139.6000000    0.234346168617
      8   S      22            57.6300000    0.382391849918
      8   S      23            24.6000000    0.318052941833
      8   S      24            10.1200000    0.070770999093
      8   S      25             4.2830000   -0.001817789630
      8   S      26             1.8050000    0.002161561737
      8   S      27             0.2782000    0.000432249354

      9   S      28        312400.0000000   -0.000016380204
      9   S      29         46800.0000000   -0.000127233535
      9   S      30         10650.0000000   -0.000668625166
      9   S      31          3018.0000000   -0.002795303744
      9   S      32           986.8000000   -0.009928227435
      9   S      33           357.4000000   -0.030244566456
      9   S      34           139.6000000   -0.077884705328
      9   S      35            57.6300000   -0.156724571545
      9   S      36            24.6000000   -0.198042753651
      9   S      37            10.1200000    0.037971251521
      9   S      38             4.2830000    0.552751544147
      9   S      39             1.8050000    0.542611452452
      9   S      40             0.2782000   -0.009675942874

     10   S      41        312400.0000000    0.000006865735
     10   S      42         46800.0000000    0.000053281983
     10   S      43         10650.0000000    0.000280421002
     10   S      44          3018.0000000    0.001170789768
     10   S      45           986.8000000    0.004173591138
     10   S      46           357.4000000    0.012720496749
     10   S      47           139.6000000    0.033152766352
     10   S      48            57.6300000    0.067671246836
     10   S      49            24.6000000    0.089831018862
     10   S      50            10.1200000   -0.020305232360
     10   S      51             4.2830000   -0.313280408979
     10   S      52             1.8050000   -0.563687905527
     10   S      53             0.2782000    1.117494073734

     11   S      54             0.6158000    1.000000000000

     12   S      55             0.1055000    1.000000000000

     13   P      56           504.9000000    0.002433660431
     13   P      57           119.4000000    0.019305559477
     13   P      58            37.9600000    0.088473106893
     13   P      59            13.9500000    0.254701981099
     13   P      60             5.4570000    0.440199242653
     13   P      61             2.1770000    0.383632006272
     13   P      62             0.2877000   -0.003946337074

     14   P      63           504.9000000   -0.000954298933
     14   P      64           119.4000000   -0.007664025747
     14   P      65            37.9600000   -0.035465925259
     14   P      66            13.9500000   -0.106164716437
     14   P      67             5.4570000   -0.187210586037
     14   P      68             2.1770000   -0.181495819791
     14   P      69             0.2877000    0.991672644618

     15   P      70             0.8010000    1.000000000000

     16   P      71             0.0971400    1.000000000000

     17   D      72             0.6480000    1.000000000000

     18   D      73             0.2180000    1.000000000000

     19   F      74             0.4520000    1.000000000000

     20   D      75             3.1200000    1.000000000000

 O         

     21   S      76         15330.0000000    0.000520198307
     21   S      77          2299.0000000    0.004023344781
     21   S      78           522.4000000    0.020729083329
     21   S      79           147.3000000    0.081082327080
     21   S      80            47.5500000    0.236226352118
     21   S      81            16.7600000    0.443518209420
     21   S      82             6.2070000    0.358670588689
     21   S      83             0.6882000   -0.008349797237

     22   S      84         15330.0000000   -0.000197236012
     22   S      85          2299.0000000   -0.001535010700
     22   S      86           522.4000000   -0.007951183914
     22   S      87           147.3000000   -0.032113452892
     22   S      88            47.5500000   -0.100269643049
     22   S      89            16.7600000   -0.234047111838
     22   S      90             6.2070000   -0.301410927756
     22   S      91             0.6882000    1.034919649508

     23   S      92             1.7520000    1.000000000000

     24   S      93             0.2384000    1.000000000000

     25   P      94            34.4600000    0.041163489568
     25   P      95             7.7490000    0.257762835858
     25   P      96             2.2800000    0.802419274427

     26   P      97             0.7156000    1.000000000000

     27   P      98             0.2140000    1.000000000000

     28   D      99             2.3140000    1.000000000000

     29   D     100             0.6450000    1.000000000000

     30   F     101             1.4280000    1.000000000000

 C         

     31   S     102          8236.0000000    0.000542430189
     31   S     103          1235.0000000    0.004196427901
     31   S     104           280.8000000    0.021540914108
     31   S     105            79.2700000    0.083614949614
     31   S     106            25.5900000    0.239871618922
     31   S     107             8.9970000    0.443751820060
     31   S     108             3.3190000    0.353579696469
     31   S     109             0.3643000   -0.009176366076

     32   S     110          8236.0000000   -0.000196392234
     32   S     111          1235.0000000   -0.001525950274
     32   S     112           280.8000000   -0.007890449028
     32   S     113            79.2700000   -0.031514870532
     32   S     114            25.5900000   -0.096910008320
     32   S     115             8.9970000   -0.220541526288
     32   S     116             3.3190000   -0.296069112937
     32   S     117             0.3643000    1.040503432950

     33   S     118             0.9059000    1.000000000000

     34   S     119             0.1285000    1.000000000000

     35   P     120            18.7100000    0.039426387165
     35   P     121             4.1330000    0.244088984924
     35   P     122             1.2000000    0.815492008943

     36   P     123             0.3827000    1.000000000000

     37   P     124             0.1209000    1.000000000000

     38   D     125             1.0970000    1.000000000000

     39   D     126             0.3180000    1.000000000000

     40   F     127             0.7610000    1.000000000000

 C         

     41   S     128          8236.0000000    0.000542430189
     41   S     129          1235.0000000    0.004196427901
     41   S     130           280.8000000    0.021540914108
     41   S     131            79.2700000    0.083614949614
     41   S     132            25.5900000    0.239871618922
     41   S     133             8.9970000    0.443751820060
     41   S     134             3.3190000    0.353579696469
     41   S     135             0.3643000   -0.009176366076

     42   S     136          8236.0000000   -0.000196392234
     42   S     137          1235.0000000   -0.001525950274
     42   S     138           280.8000000   -0.007890449028
     42   S     139            79.2700000   -0.031514870532
     42   S     140            25.5900000   -0.096910008320
     42   S     141             8.9970000   -0.220541526288
     42   S     142             3.3190000   -0.296069112937
     42   S     143             0.3643000    1.040503432950

     43   S     144             0.9059000    1.000000000000

     44   S     145             0.1285000    1.000000000000

     45   P     146            18.7100000    0.039426387165
     45   P     147             4.1330000    0.244088984924
     45   P     148             1.2000000    0.815492008943

     46   P     149             0.3827000    1.000000000000

     47   P     150             0.1209000    1.000000000000

     48   D     151             1.0970000    1.000000000000

     49   D     152             0.3180000    1.000000000000

     50   F     153             0.7610000    1.000000000000

 C         

     51   S     154          8236.0000000    0.000542430189
     51   S     155          1235.0000000    0.004196427901
     51   S     156           280.8000000    0.021540914108
     51   S     157            79.2700000    0.083614949614
     51   S     158            25.5900000    0.239871618922
     51   S     159             8.9970000    0.443751820060
     51   S     160             3.3190000    0.353579696469
     51   S     161             0.3643000   -0.009176366076

     52   S     162          8236.0000000   -0.000196392234
     52   S     163          1235.0000000   -0.001525950274
     52   S     164           280.8000000   -0.007890449028
     52   S     165            79.2700000   -0.031514870532
     52   S     166            25.5900000   -0.096910008320
     52   S     167             8.9970000   -0.220541526288
     52   S     168             3.3190000   -0.296069112937
     52   S     169             0.3643000    1.040503432950

     53   S     170             0.9059000    1.000000000000

     54   S     171             0.1285000    1.000000000000

     55   P     172            18.7100000    0.039426387165
     55   P     173             4.1330000    0.244088984924
     55   P     174             1.2000000    0.815492008943

     56   P     175             0.3827000    1.000000000000

     57   P     176             0.1209000    1.000000000000

     58   D     177             1.0970000    1.000000000000

     59   D     178             0.3180000    1.000000000000

     60   F     179             0.7610000    1.000000000000

 H         

     61   S     180            33.8700000    0.025494863235
     61   S     181             5.0950000    0.190362765893
     61   S     182             1.1590000    0.852162022245

     62   S     183             0.3258000    1.000000000000

     63   S     184             0.1027000    1.000000000000

     64   P     185             1.4070000    1.000000000000

     65   P     186             0.3880000    1.000000000000

     66   D     187             1.0570000    1.000000000000

 H         

     67   S     188            33.8700000    0.025494863235
     67   S     189             5.0950000    0.190362765893
     67   S     190             1.1590000    0.852162022245

     68   S     191             0.3258000    1.000000000000

     69   S     192             0.1027000    1.000000000000

     70   P     193             1.4070000    1.000000000000

     71   P     194             0.3880000    1.000000000000

     72   D     195             1.0570000    1.000000000000

 H         

     73   S     196            33.8700000    0.025494863235
     73   S     197             5.0950000    0.190362765893
     73   S     198             1.1590000    0.852162022245

     74   S     199             0.3258000    1.000000000000

     75   S     200             0.1027000    1.000000000000

     76   P     201             1.4070000    1.000000000000

     77   P     202             0.3880000    1.000000000000

     78   D     203             1.0570000    1.000000000000

 H         

     79   S     204            33.8700000    0.025494863235
     79   S     205             5.0950000    0.190362765893
     79   S     206             1.1590000    0.852162022245

     80   S     207             0.3258000    1.000000000000

     81   S     208             0.1027000    1.000000000000

     82   P     209             1.4070000    1.000000000000

     83   P     210             0.3880000    1.000000000000

     84   D     211             1.0570000    1.000000000000

 H         

     85   S     212            33.8700000    0.025494863235
     85   S     213             5.0950000    0.190362765893
     85   S     214             1.1590000    0.852162022245

     86   S     215             0.3258000    1.000000000000

     87   S     216             0.1027000    1.000000000000

     88   P     217             1.4070000    1.000000000000

     89   P     218             0.3880000    1.000000000000

     90   D     219             1.0570000    1.000000000000

 H         

     91   S     220            33.8700000    0.025494863235
     91   S     221             5.0950000    0.190362765893
     91   S     222             1.1590000    0.852162022245

     92   S     223             0.3258000    1.000000000000

     93   S     224             0.1027000    1.000000000000

     94   P     225             1.4070000    1.000000000000

     95   P     226             0.3880000    1.000000000000

     96   D     227             1.0570000    1.000000000000

 H         

     97   S     228            33.8700000    0.025494863235
     97   S     229             5.0950000    0.190362765893
     97   S     230             1.1590000    0.852162022245

     98   S     231             0.3258000    1.000000000000

     99   S     232             0.1027000    1.000000000000

    100   P     233             1.4070000    1.000000000000

    101   P     234             0.3880000    1.000000000000

    102   D     235             1.0570000    1.000000000000

 H         

    103   S     236            33.8700000    0.025494863235
    103   S     237             5.0950000    0.190362765893
    103   S     238             1.1590000    0.852162022245

    104   S     239             0.3258000    1.000000000000

    105   S     240             0.1027000    1.000000000000

    106   P     241             1.4070000    1.000000000000

    107   P     242             0.3880000    1.000000000000

    108   D     243             1.0570000    1.000000000000

 H         

    109   S     244            33.8700000    0.025494863235
    109   S     245             5.0950000    0.190362765893
    109   S     246             1.1590000    0.852162022245

    110   S     247             0.3258000    1.000000000000

    111   S     248             0.1027000    1.000000000000

    112   P     249             1.4070000    1.000000000000

    113   P     250             0.3880000    1.000000000000

    114   D     251             1.0570000    1.000000000000

 TOTAL NUMBER OF BASIS SET SHELLS             =  114
 NUMBER OF CARTESIAN GAUSSIAN BASIS FUNCTIONS =  354
 NOTE: THIS RUN WILL RESTRICT THE MO VARIATION SPACE TO SPHERICAL HARMONICS.
 THE NUMBER OF ORBITALS KEPT IN THE VARIATIONAL SPACE WILL BE PRINTED LATER.
 NUMBER OF ELECTRONS                          =  104
 CHARGE OF MOLECULE                           =    3
 SPIN MULTIPLICITY                            =    1
 NUMBER OF OCCUPIED ORBITALS (ALPHA)          =   52
 NUMBER OF OCCUPIED ORBITALS (BETA )          =   52
 TOTAL NUMBER OF ATOMS                        =   15
 THE NUCLEAR REPULSION ENERGY IS      624.9298025602
 NOTE THIS RUN IS USING CORE POTENTIALS, AND THE NUMBER OF ELECTRONS,
 OCCUPIED ORBITALS, AND NUCLEAR REPULSION ENERGY WILL BE ADJUSTED BELOW
 AFTER REMOVAL OF THE CORE CHARGES.

     $CONTRL OPTIONS
     ---------------
 SCFTYP=RHF          RUNTYP=OPTIMIZE     EXETYP=RUN     
 MPLEVL=       2     CITYP =NONE         CCTYP =NONE         VBTYP =NONE    
 DFTTYP=NONE         TDDFT =NONE    
 MULT  =       1     ICHARG=       3     NZVAR =      39     COORD =UNIQUE  
 PP    =READ         RELWFN=NONE         LOCAL =NONE         NUMGRD=       F
 ISPHER=       1     NOSYM =       0     MAXIT =     200     UNITS =ANGS    
 PLTORB=       F     MOLPLT=       F     AIMPAC=       F     FRIEND=        
 NPRINT=       7     IREST =       0     GEOM  =INPUT   
 NORMF =       0     NORMP =       0     ITOL  =      20     ICUT  =      11
 INTTYP=BEST         GRDTYP=BEST         QMTTOL= 1.0E-06

     $SYSTEM OPTIONS
     ---------------
  REPLICATED MEMORY=   300000000 WORDS (ON EVERY NODE).
 DISTRIBUTED MEMDDI=         300 MILLION WORDS IN AGGREGATE,
 MEMDDI DISTRIBUTED OVER  16 PROCESSORS IS    18750000 WORDS/PROCESSOR.
 TOTAL MEMORY REQUESTED ON EACH PROCESSOR=   318750000 WORDS.
 TIMLIM=      525600.00 MINUTES, OR     365.0 DAYS.
 PARALL= T  BALTYP=  DLB     KDIAG=    0  COREFL= F
 MXSEQ2=     300 MXSEQ3=     150  mem10=         0

          --------------
          ECP POTENTIALS
          --------------

 PARAMETERS FOR "LA-ECP  " ON ATOM    1 WITH ZCORE  46 AND LMAX  4 ARE
 FOR L= 4      COEFF    N           ZETA
    1       -2.85665    1        1.42345
 FOR L= 0      COEFF    N           ZETA
    1        8.85347    0       22.29739
    2      -68.41778    2        1.64320
    3      110.12463    2        1.85122
 FOR L= 1      COEFF    N           ZETA
    1        2.98675    0        1.77635
    2      -35.51815    2        3.98941
    3       53.65423    2        2.47524
 FOR L= 2      COEFF    N           ZETA
    1        1.67298    0        1.52169
    2       18.46625    2        1.52182
 FOR L= 3      COEFF    N           ZETA
    1       -4.64430    1        2.67762
    2      -14.43101    1       10.06608

 THE ECP RUN REMOVES   46 CORE ELECTRONS, AND THE SAME NUMBER OF PROTONS.
 NUMBER OF ELECTRONS KEPT IN THE CALCULATION IS =   58
 NUMBER OF OCCUPIED ORBITALS (ALPHA) KEPT IS    =   29
 NUMBER OF OCCUPIED ORBITALS (BETA ) KEPT IS    =   29
 THE ADJUSTED NUCLEAR REPULSION ENERGY=      325.9998702324
          ECP ANGULAR INTS.........     0.02 SECONDS

          ----------------
          PROPERTIES INPUT
          ----------------

     MOMENTS            FIELD           POTENTIAL          DENSITY
 IEMOM =       1   IEFLD =       0   IEPOT =       0   IEDEN =       0
 WHERE =COMASS     WHERE =NUCLEI     WHERE =NUCLEI     WHERE =NUCLEI  
 OUTPUT=BOTH       OUTPUT=BOTH       OUTPUT=BOTH       OUTPUT=BOTH    
 IEMINT=       0   IEFINT=       0                     IEDINT=       0
                                                       MORB  =       0
          EXTRAPOLATION IN EFFECT
          SOSCF IN EFFECT
 ORBITAL PRINTING OPTION: NPREO=     1   354     2     1

     -------------------------------
     INTEGRAL TRANSFORMATION OPTIONS
     -------------------------------
     NWORD  =            0
     CUTOFF = 1.0E-09     MPTRAN =       0
     DIRTRF =       T     AOINTS =DUP     

          ----------------------
          INTEGRAL INPUT OPTIONS
          ----------------------
 NOPK  =       1 NORDER=       0 SCHWRZ=       T

          -----------------------
          MP2 CONTROL INFORMATION
          -----------------------
          NACORE =       13  NBCORE =       13
          LMOMP2 =        F  AOINTS = DUP     
          METHOD =        2  NWORD  =               0
          MP2PRP =        F  OSPT   = NONE    
          CUTOFF = 1.00E-09  CPHFBS = BASISAO 
          CODE   = DDI     

          NUMBER OF CORE -A-  ORBITALS =    13
          NUMBER OF CORE -B-  ORBITALS =    13
          NUMBER OF OCC. -A-  ORBITALS =    29
          NUMBER OF OCC. -B-  ORBITALS =    29
          NUMBER OF MOLECULAR ORBITALS =   354
          NUMBER OF   BASIS  FUNCTIONS =   354

 
 
 -----------------------------------------------
  STATISTICS ON AUTOMATIC COORDINATE GENERATION 
 -----------------------------------------------
  NUMBER OF USER SPECIFIED BONDS                              0
  NUMBER OF BONDS                                            14
  NUMBER OF ANGLES                                           25
  NUMBER OF TORSIONS                                         30
  NUMBER OF EXTRA COORD.                                      0
  NUMBER OF EXTRA COORD. FOR CONSTRAINTS                      0
  NUMBER OF CONSTRAINED COORD.                                1
 
  TOTAL NUMBER OF PRIMITIVES                                 69
 -----------------------------------------------

   --- ENCODED Z MATRIX ---
 COORD  TYPE   I   J   K   L   M   N
    1      1    1   3
    2      1    2   4
    3      1    2   3
    4      1    2   6
    5      1    2   5
    6      1    4   8
    7      1    4   7
    8      1    4   9
    9      1    5  12
   10      1    5  11
   11      1    5  10
   12      1    6  15
   13      1    6  14
   14      1    6  13
   15      2    1   3   2
   16      2    2   5  11
   17      2    2   4   8
   18      2    2   6  13
   19      2    2   6  14
   20      2    2   4   9
   21      2    2   5  12
   22      2    2   5  10
   23      2    2   4   7
   24      2    2   6  15
   25      2    3   2   4
   26      2    3   2   5
   27      2    3   2   6
   28      2    4   2   6
   29      2    4   2   5
   30      2    5   2   6
   31      2    7   4   9
   32      2    7   4   8
   33      2    8   4   9
   34      2   10   5  11
   35      2   10   5  12
   36      2   11   5  12
   37      2   13   6  14
   38      2   13   6  15
   39      2   14   6  15
   40      3    1   3   2   5
   41      3    1   3   2   4
   42      3    1   3   2   6
   43      3    3   2   4   8
   44      3    3   2   6  15
   45      3    3   2   6  14
   46      3    3   2   4   7
   47      3    3   2   5  10
   48      3    3   2   6  13
   49      3    3   2   5  11
   50      3    3   2   5  12
   51      3    3   2   4   9
   52      3    4   2   6  15
   53      3    4   2   6  14
   54      3    4   2   5  10
   55      3    4   2   6  13
   56      3    4   2   5  12
   57      3    4   2   5  11
   58      3    5   2   6  15
   59      3    5   2   6  14
   60      3    5   2   4   7
   61      3    5   2   6  13
   62      3    5   2   4   9
   63      3    5   2   4   8
   64      3    6   2   4   7
   65      3    6   2   5  10
   66      3    6   2   5  11
   67      3    6   2   5  12
   68      3    6   2   4   9
   69      3    6   2   4   8

          INDEP./SYM. INTERNAL COORDINATES
          --------------------------------
 CRD  1=   1.0000 (  1)
 CRD  2=   0.1275 ( 20)  0.1225 ( 22)  0.1256 ( 24)  0.1605 ( 25)  0.2155 ( 26)
          -0.3761 ( 27)  0.2806 ( 28) -0.4897 ( 29)  0.2091 ( 30)  0.1788 ( 40)
          -0.1968 ( 41) -0.1323 ( 46)  0.1263 ( 50) -0.1029 ( 51)  0.1235 ( 52)
           0.1631 ( 53) -0.1400 ( 58) -0.1004 ( 59) -0.1691 ( 61) -0.1242 ( 65)
          -0.1558 ( 66)  0.1029 ( 68)  0.1448 ( 69)
 CRD  3=  -0.2585 (  2)  0.2345 (  5)  0.4045 ( 15)  0.1945 ( 18) -0.1835 ( 19)
          -0.1406 ( 20)  0.1628 ( 22) -0.3373 ( 28)  0.3718 ( 30)  0.1491 ( 40)
           0.1111 ( 41) -0.2602 ( 42)  0.1575 ( 44) -0.1027 ( 57) -0.1090 ( 63)
           0.1238 ( 64)  0.1297 ( 65)  0.1242 ( 67)  0.1300 ( 68)
 CRD  4=  -0.1673 (  2)  0.3921 (  4) -0.2248 (  5)  0.1387 ( 18)  0.1657 ( 19)
          -0.2200 ( 21) -0.2114 ( 23) -0.1094 ( 25) -0.1468 ( 26)  0.2562 ( 27)
          -0.1497 ( 29) -0.1242 ( 37)  0.1463 ( 40) -0.1618 ( 41)  0.2434 ( 43)
           0.1973 ( 46) -0.1509 ( 47) -0.2208 ( 49) -0.1844 ( 50)  0.1723 ( 51)
           0.1501 ( 54)  0.1166 ( 56) -0.1262 ( 60) -0.1512 ( 62)  0.1038 ( 65)
          -0.1168 ( 68)
 CRD  5=  -0.3965 (  2) -0.3965 (  4) -0.3965 (  5) -0.2736 ( 16) -0.2736 ( 17)
          -0.2736 ( 24)  0.1192 ( 32)  0.1193 ( 33)  0.1192 ( 34)  0.1191 ( 36)
           0.1191 ( 38)  0.1192 ( 39) -0.1211 ( 54)  0.1211 ( 55) -0.1211 ( 59)
           0.1211 ( 62) -0.1211 ( 64)  0.1211 ( 67)
 CRD  6=  -0.2467 (  2) -0.3433 (  3) -0.2465 (  4) -0.2459 (  5)  0.2310 ( 16)
           0.2314 ( 17) -0.2133 ( 18) -0.2126 ( 19) -0.2127 ( 20) -0.2132 ( 21)
          -0.2121 ( 22) -0.2138 ( 23)  0.2310 ( 24)  0.1638 ( 31)  0.1635 ( 35)
           0.1637 ( 37)  0.1289 ( 54) -0.1289 ( 55)  0.1288 ( 59) -0.1288 ( 62)
           0.1288 ( 64) -0.1287 ( 67)
 CRD  7=   0.3648 (  2) -0.3340 (  5) -0.1100 ( 13)  0.1091 ( 14)  0.1432 ( 15)
          -0.2017 ( 16)  0.2191 ( 17)  0.3780 ( 18) -0.3904 ( 19) -0.1060 ( 20)
          -0.2719 ( 21)  0.1616 ( 22)  0.2278 ( 23) -0.1922 ( 32)  0.1991 ( 36)
          -0.1268 ( 38)  0.1487 ( 39)
 CRD  8=  -0.1396 (  2)  0.3193 (  4) -0.1800 (  5) -0.1963 ( 16) -0.1496 ( 17)
          -0.3537 ( 20)  0.3429 ( 21) -0.3205 ( 22)  0.3688 ( 23)  0.3476 ( 24)
           0.1897 ( 33)  0.1978 ( 34) -0.1546 ( 38) -0.1334 ( 39)
 CRD  9=  -0.1287 (  2)  0.1171 (  5) -0.3139 ( 15) -0.4056 ( 16)  0.4464 ( 17)
          -0.2776 ( 20)  0.2312 ( 21)  0.2560 ( 22) -0.2589 ( 23)  0.2164 ( 31)
          -0.1969 ( 35) -0.1030 ( 53)  0.1034 ( 56) -0.1033 ( 59)  0.1056 ( 67)
 CRD 10=  -0.3704 ( 18)  0.3708 ( 19) -0.3714 ( 20) -0.3698 ( 21)  0.3711 ( 22)
           0.3703 ( 23) -0.1315 ( 32)  0.1311 ( 33) -0.1307 ( 34)  0.1314 ( 36)
           0.1312 ( 38) -0.1311 ( 39)
 CRD 11=   0.1014 ( 11)  0.1412 ( 12) -0.2924 ( 16) -0.2176 ( 17) -0.2796 ( 18)
          -0.2430 ( 19)  0.3035 ( 20)  0.3239 ( 22)  0.5092 ( 24)  0.1174 ( 32)
          -0.1325 ( 35)  0.1252 ( 36)  0.2306 ( 37) -0.1078 ( 39)
 CRD 12=   0.7678 (  3)  0.1063 (  6)  0.1053 ( 10)  0.1057 ( 12)  0.2242 ( 16)
           0.2267 ( 17) -0.1102 ( 18) -0.1077 ( 19) -0.1087 ( 20) -0.1084 ( 21)
          -0.1088 ( 22) -0.1102 ( 23)  0.2253 ( 24)  0.1159 ( 31)  0.1151 ( 35)
           0.1154 ( 37)
 CRD 13=  -0.1736 (  2)  0.1574 (  5) -0.1291 (  6)  0.1178 ( 10) -0.4105 ( 15)
           0.2424 ( 16) -0.2658 ( 17)  0.2596 ( 18) -0.2664 ( 19) -0.1803 ( 21)
           0.1220 ( 22)  0.1444 ( 23) -0.2034 ( 25)  0.1849 ( 26)  0.1310 ( 28)
          -0.1448 ( 30)  0.1665 ( 33) -0.1702 ( 34) -0.1128 ( 38) -0.1144 ( 52)
          -0.1374 ( 53)  0.1051 ( 54) -0.1361 ( 55)  0.1179 ( 56) -0.1078 ( 58)
          -0.1307 ( 59)  0.1032 ( 60) -0.1295 ( 61)
 CRD 14=  -0.2088 ( 43) -0.2088 ( 44) -0.1810 ( 45) -0.1812 ( 46) -0.1809 ( 47)
          -0.1811 ( 48) -0.2087 ( 49) -0.1809 ( 50) -0.1812 ( 51) -0.2088 ( 52)
          -0.1810 ( 53) -0.1810 ( 54) -0.1811 ( 55) -0.1809 ( 56) -0.2088 ( 57)
          -0.2088 ( 58) -0.1810 ( 59) -0.1811 ( 60) -0.1811 ( 61) -0.1811 ( 62)
          -0.2087 ( 63) -0.1811 ( 64) -0.1809 ( 65) -0.2087 ( 66) -0.1809 ( 67)
          -0.1811 ( 68) -0.2088 ( 69)
 CRD 15=   0.1109 (  7)  0.1374 (  9) -0.1996 ( 13) -0.1948 ( 14) -0.1047 ( 39)
          -0.2654 ( 43) -0.2450 ( 46)  0.2426 ( 47)  0.2410 ( 49)  0.2184 ( 50)
          -0.2630 ( 51)  0.1773 ( 54)  0.1530 ( 56)  0.1756 ( 57) -0.1758 ( 60)
          -0.1938 ( 62) -0.1961 ( 63) -0.1876 ( 64)  0.1931 ( 65)  0.1915 ( 66)
           0.1689 ( 67) -0.2056 ( 68) -0.2080 ( 69)
 CRD 16=   0.3962 (  6)  0.3477 (  7)  0.3100 (  8) -0.3157 (  9) -0.3430 ( 10)
          -0.2560 ( 11)  0.1065 ( 16) -0.1227 ( 17) -0.1763 ( 20)  0.1149 ( 21)
           0.1637 ( 22) -0.1446 ( 23)  0.1839 ( 31)  0.1220 ( 32)  0.1402 ( 33)
          -0.1277 ( 34) -0.1597 ( 35)
 CRD 17=   0.1697 (  6)  0.1806 (  8)  0.1574 (  9)  0.2615 ( 10)  0.2470 ( 11)
          -0.4308 ( 12) -0.3247 ( 13) -0.3376 ( 14)  0.1619 ( 18)  0.1716 ( 19)
          -0.1327 ( 21) -0.1014 ( 23)  0.1236 ( 24)  0.1183 ( 35) -0.1946 ( 37)
          -0.1297 ( 38) -0.1351 ( 39)  0.1049 ( 60)  0.1094 ( 62)  0.1032 ( 63)
           0.1016 ( 68)
 CRD 18=  -0.1007 (  2) -0.1008 (  4) -0.1007 (  5) -0.2692 (  6) -0.3024 (  7)
          -0.3023 (  8) -0.3026 (  9) -0.2691 ( 10) -0.3024 ( 11) -0.2695 ( 12)
          -0.3028 ( 13) -0.3027 ( 14)  0.1121 ( 16)  0.1121 ( 17)  0.1014 ( 18)
           0.1015 ( 19)  0.1013 ( 20)  0.1013 ( 21)  0.1014 ( 22)  0.1012 ( 23)
           0.1122 ( 24) -0.1067 ( 31) -0.1049 ( 32) -0.1050 ( 33) -0.1049 ( 34)
          -0.1069 ( 35) -0.1049 ( 36) -0.1070 ( 37) -0.1049 ( 38) -0.1050 ( 39)
 CRD 19=  -0.1508 (  2)  0.1367 (  5) -0.1678 (  7) -0.2764 (  8)  0.1280 (  9)
           0.2746 ( 11) -0.1072 ( 13)  0.1489 ( 14) -0.2011 ( 15) -0.1084 ( 43)
           0.2539 ( 44)  0.2386 ( 45) -0.1015 ( 46) -0.1374 ( 47)  0.2390 ( 48)
          -0.1456 ( 49) -0.1362 ( 50) -0.1027 ( 51)  0.2118 ( 52)  0.1965 ( 53)
           0.1969 ( 55) -0.1056 ( 57)  0.2153 ( 58)  0.2000 ( 59)  0.2003 ( 61)
          -0.1028 ( 64) -0.1311 ( 65) -0.1393 ( 66) -0.1300 ( 67) -0.1040 ( 68)
          -0.1097 ( 69)
 CRD 20=   0.1947 (  6) -0.2690 (  8)  0.2750 ( 10) -0.2897 ( 11) -0.4799 ( 12)
           0.2106 ( 13)  0.2499 ( 14)  0.1489 ( 32) -0.1397 ( 35)  0.1603 ( 36)
           0.2437 ( 37) -0.1150 ( 38) -0.1365 ( 39) -0.1334 ( 45)  0.1299 ( 48)
          -0.1396 ( 53)  0.1237 ( 55) -0.1265 ( 59)  0.1368 ( 61)
 CRD 21=  -0.4059 (  6)  0.2853 (  7) -0.3076 (  9)  0.3666 ( 10) -0.2709 ( 13)
           0.2300 ( 14)  0.2096 ( 31) -0.1593 ( 33)  0.1702 ( 34) -0.1892 ( 35)
           0.1421 ( 38) -0.1184 ( 39)  0.1212 ( 44) -0.1018 ( 46)  0.1116 ( 47)
           0.1193 ( 51)  0.1243 ( 52)  0.1062 ( 54)  0.1236 ( 58) -0.1073 ( 60)
           0.1138 ( 62)  0.1136 ( 65)  0.1226 ( 68)
 CRD 22=  -0.3846 (  6)  0.1856 (  7)  0.1661 (  8)  0.1605 (  9) -0.3812 ( 10)
           0.1877 ( 11) -0.3766 ( 12)  0.1813 ( 13)  0.1624 ( 14)  0.1955 ( 31)
          -0.1036 ( 33)  0.1937 ( 35) -0.1049 ( 36)  0.1914 ( 37) -0.1014 ( 38)
          -0.1015 ( 45) -0.1036 ( 46) -0.1022 ( 47)  0.1049 ( 48)  0.1067 ( 50)
           0.1072 ( 51) -0.1174 ( 54)  0.1202 ( 55) -0.1168 ( 59)  0.1224 ( 62)
          -0.1188 ( 64)  0.1220 ( 67)
 CRD 23=  -0.3134 (  7)  0.3284 (  8)  0.3223 (  9) -0.3127 ( 11) -0.3143 ( 13)
           0.3254 ( 14) -0.1765 ( 32)  0.1680 ( 33) -0.1731 ( 34)  0.1677 ( 36)
           0.1685 ( 38) -0.1747 ( 39)  0.1256 ( 43)  0.1255 ( 44)  0.1242 ( 49)
           0.1261 ( 52)  0.1237 ( 57)  0.1250 ( 58)  0.1260 ( 63)  0.1247 ( 66)
           0.1250 ( 69)
 CRD 24=  -0.4044 (  7)  0.3149 (  8) -0.3880 (  9)  0.1229 ( 10)  0.2624 ( 11)
          -0.2079 ( 12)  0.1446 ( 13) -0.1747 ( 32)  0.2282 ( 33)  0.2199 ( 34)
          -0.1441 ( 36)  0.1204 ( 37)  0.1159 ( 43)  0.1288 ( 47) -0.1051 ( 49)
          -0.1272 ( 51)  0.1424 ( 54) -0.1411 ( 62)  0.1020 ( 63)  0.1364 ( 65)
          -0.1368 ( 68)  0.1062 ( 69)
 CRD 25=   0.2480 (  6) -0.2342 (  8) -0.1204 (  9) -0.2219 ( 10)  0.2813 ( 11)
          -0.3374 ( 13)  0.3569 ( 14) -0.1504 ( 31)  0.1580 ( 32)  0.1346 ( 35)
          -0.1856 ( 36)  0.2076 ( 38) -0.2220 ( 39) -0.1378 ( 45)  0.1313 ( 46)
          -0.1219 ( 48)  0.1442 ( 50) -0.1535 ( 53) -0.1376 ( 55)  0.1458 ( 56)
          -0.1552 ( 59)  0.1295 ( 60) -0.1393 ( 61)  0.1470 ( 64)  0.1616 ( 67)
 CRD 26=  -0.1092 (  2)  0.2557 (  4) -0.1466 (  5) -0.2387 (  7) -0.2619 (  9)
           0.1286 ( 12)  0.2568 ( 13)  0.2317 ( 14)  0.1625 ( 18)  0.1851 ( 19)
          -0.2098 ( 21) -0.1956 ( 23)  0.1049 ( 24) -0.1234 ( 27) -0.1077 ( 28)
           0.1879 ( 29)  0.1579 ( 32)  0.1275 ( 35)  0.1647 ( 36) -0.2229 ( 37)
          -0.1053 ( 38) -0.1254 ( 39) -0.1345 ( 40)  0.1490 ( 41) -0.1492 ( 43)
           0.1355 ( 49) -0.1405 ( 54) -0.1190 ( 56)  0.1248 ( 60)  0.1408 ( 62)
 CRD 27=   0.4667 (  3) -0.2684 (  6) -0.2679 ( 10) -0.2681 ( 12) -0.1524 ( 16)
          -0.1528 ( 17) -0.1526 ( 24)  0.1599 ( 32)  0.1605 ( 33)  0.1599 ( 34)
           0.1596 ( 36)  0.1596 ( 38)  0.1603 ( 39) -0.1010 ( 52)  0.1758 ( 54)
          -0.1756 ( 55)  0.1008 ( 57)  0.1008 ( 58)  0.1759 ( 59) -0.1758 ( 62)
          -0.1007 ( 63)  0.1756 ( 64) -0.1011 ( 66) -0.1758 ( 67)  0.1010 ( 69)
 CRD 28=   0.1304 (  6)  0.1623 (  7)  0.2596 (  8) -0.1262 (  9) -0.1188 ( 10)
          -0.2567 ( 11) -0.1336 ( 14) -0.2159 ( 15) -0.1449 ( 16)  0.1592 ( 17)
           0.2157 ( 20) -0.1369 ( 21) -0.2072 ( 22)  0.1632 ( 23) -0.1669 ( 25)
           0.1512 ( 26) -0.2276 ( 31) -0.1184 ( 32) -0.1941 ( 33)  0.1929 ( 34)
           0.2065 ( 35)  0.1035 ( 38) -0.1233 ( 42) -0.1100 ( 43)  0.2577 ( 44)
           0.1839 ( 45) -0.1153 ( 47)  0.1855 ( 48) -0.1476 ( 49)
 CRD 29=  -0.3201 (  2)  0.1840 (  3) -0.3202 (  4) -0.3197 (  5)  0.1796 (  7)
           0.1793 (  8)  0.1796 (  9)  0.1792 ( 11)  0.1794 ( 13)  0.1796 ( 14)
           0.1222 ( 16)  0.1223 ( 17)  0.1570 ( 18)  0.1569 ( 19)  0.1569 ( 20)
           0.1568 ( 21)  0.1568 ( 22)  0.1569 ( 23)  0.1223 ( 24) -0.2242 ( 31)
          -0.1057 ( 32) -0.1055 ( 33) -0.1052 ( 34) -0.2241 ( 35) -0.1055 ( 36)
          -0.2242 ( 37) -0.1056 ( 38) -0.1055 ( 39)
 CRD 30=  -0.2345 (  2)  0.5493 (  4) -0.3151 (  5)  0.1588 (  8)  0.1112 ( 10)
           0.1722 ( 11) -0.1942 ( 12) -0.1420 ( 13) -0.1594 ( 14)  0.1078 ( 16)
          -0.1852 ( 18) -0.1816 ( 19)  0.1229 ( 22) -0.1879 ( 24) -0.1561 ( 33)
          -0.1781 ( 34)  0.1671 ( 37)  0.2032 ( 38)  0.1898 ( 39)
 CRD 31=  -0.1876 (  3) -0.1767 (  6) -0.1765 ( 10) -0.1766 ( 12)  0.1279 ( 16)
           0.1278 ( 17)  0.1278 ( 24)  0.1001 ( 26)  0.1000 ( 27) -0.1360 ( 31)
          -0.1359 ( 35) -0.1359 ( 37)  0.1286 ( 45)  0.1280 ( 46)  0.1283 ( 47)
          -0.1279 ( 48) -0.1282 ( 50) -0.1285 ( 51)  0.1325 ( 52)  0.2612 ( 53)
          -0.2610 ( 56) -0.1332 ( 57) -0.1332 ( 58)  0.2609 ( 60) -0.2609 ( 61)
           0.1332 ( 63)  0.2613 ( 65)  0.1326 ( 66) -0.2612 ( 68) -0.1324 ( 69)
 CRD 32=  -0.4615 (  2)  0.4187 (  5)  0.1576 (  6)  0.1535 (  7) -0.1743 (  9)
          -0.1429 ( 10) -0.1950 ( 13)  0.1810 ( 14)  0.1254 ( 15) -0.1040 ( 16)
           0.1147 ( 17)  0.1137 ( 20) -0.1087 ( 21) -0.1021 ( 22)  0.1186 ( 23)
           0.1016 ( 25) -0.1999 ( 32)  0.2081 ( 36) -0.1305 ( 38)  0.1563 ( 39)
           0.1030 ( 43) -0.2414 ( 44)  0.1383 ( 49) -0.1042 ( 52) -0.1023 ( 58)
 CRD 33=   0.2306 (  7) -0.2309 (  8) -0.2311 (  9)  0.2314 ( 11)  0.2313 ( 13)
          -0.2308 ( 14) -0.1771 ( 32)  0.1769 ( 33) -0.1772 ( 34)  0.1775 ( 36)
           0.1774 ( 38) -0.1771 ( 39)  0.1514 ( 43)  0.1515 ( 44) -0.1131 ( 45)
          -0.1134 ( 46) -0.1132 ( 47) -0.1136 ( 48)  0.1517 ( 49) -0.1137 ( 50)
          -0.1130 ( 51)  0.1516 ( 52) -0.1130 ( 53) -0.1131 ( 54) -0.1135 ( 55)
          -0.1136 ( 56)  0.1517 ( 57)  0.1515 ( 58) -0.1131 ( 59) -0.1135 ( 60)
          -0.1136 ( 61) -0.1131 ( 62)  0.1513 ( 63) -0.1135 ( 64) -0.1131 ( 65)
           0.1517 ( 66) -0.1136 ( 67) -0.1131 ( 68)  0.1513 ( 69)
 CRD 34=   0.1306 (  6)  0.1122 (  7) -0.2276 (  8)  0.1588 ( 10) -0.2274 ( 11)
          -0.2886 ( 12)  0.1149 ( 13)  0.1400 ( 14)  0.1063 ( 20)  0.1059 ( 22)
           0.1367 ( 29) -0.1843 ( 32)  0.1141 ( 35) -0.1867 ( 36) -0.2075 ( 37)
           0.1119 ( 38)  0.1310 ( 39)  0.1036 ( 43)  0.1810 ( 45) -0.1751 ( 46)
          -0.1675 ( 48)  0.1855 ( 50)  0.1441 ( 53) -0.2044 ( 55)  0.1669 ( 56)
          -0.1141 ( 57)  0.2177 ( 59) -0.1605 ( 60) -0.1308 ( 61)  0.1183 ( 63)
          -0.1932 ( 64)  0.2076 ( 67)
 CRD 35=  -0.2877 (  6)  0.1939 (  7) -0.1979 (  9)  0.2680 ( 10) -0.1528 ( 13)
           0.1348 ( 14)  0.1003 ( 17) -0.1001 ( 28)  0.1068 ( 30) -0.2082 ( 31)
           0.1707 ( 33) -0.1723 ( 34)  0.1938 ( 35) -0.1183 ( 38)  0.1014 ( 39)
           0.1307 ( 46) -0.2149 ( 47)  0.1080 ( 48)  0.1095 ( 50) -0.2174 ( 51)
          -0.2479 ( 54)  0.1204 ( 55)  0.1169 ( 61) -0.2508 ( 62)  0.1549 ( 64)
          -0.1941 ( 65)  0.1303 ( 67) -0.1933 ( 68)
 CRD 36=   0.1508 (  4)  0.2432 (  7) -0.1485 (  8)  0.2410 (  9) -0.1101 ( 10)
          -0.1143 ( 11)  0.1931 ( 12) -0.1287 ( 13)  0.1015 ( 20) -0.1166 ( 21)
          -0.1232 ( 23) -0.1084 ( 24)  0.1267 ( 29) -0.1196 ( 32)  0.1759 ( 33)
           0.1717 ( 34)  0.1734 ( 37)  0.1002 ( 41)  0.1193 ( 43) -0.1196 ( 45)
           0.1831 ( 47)  0.1410 ( 48) -0.1080 ( 49) -0.1754 ( 51) -0.1657 ( 53)
          -0.1047 ( 56) -0.2472 ( 57)  0.1631 ( 61)  0.2657 ( 63) -0.2083 ( 66)
           0.2366 ( 69)
 CRD 37=  -0.2303 (  2)  0.2092 (  5) -0.1115 (  6)  0.1656 (  8)  0.1013 ( 10)
          -0.1870 ( 11)  0.1929 ( 13) -0.2072 ( 14)  0.1436 ( 18) -0.1423 ( 19)
           0.1189 ( 25) -0.1078 ( 26)  0.1370 ( 28) -0.1511 ( 30) -0.1218 ( 31)
           0.1106 ( 35) -0.1125 ( 36)  0.1483 ( 38) -0.1532 ( 39)  0.1514 ( 42)
          -0.2086 ( 45)  0.1706 ( 46) -0.1936 ( 48)  0.1920 ( 50)  0.2690 ( 52)
           0.1061 ( 56) -0.1191 ( 57)  0.2762 ( 58)  0.1198 ( 60) -0.1213 ( 65)
          -0.1926 ( 66) -0.1311 ( 68) -0.1573 ( 69)
 CRD 38=  -0.6610 ( 15)  0.3053 ( 25) -0.2770 ( 26) -0.2503 ( 28)  0.2760 ( 30)
          -0.1036 ( 42) -0.1283 ( 44) -0.1523 ( 45)  0.1137 ( 47) -0.1574 ( 48)
          -0.1235 ( 56) -0.1139 ( 57) -0.1251 ( 60) -0.1090 ( 63)
 CRD 39=   0.5775 ( 40)  0.5772 ( 41)  0.5774 ( 42)

 THE DETERMINANT OF THE G MATRIX IS 10**(   -13)


                     --------------------
                     INTERNAL COORDINATES
                     --------------------

                 - - ATOMS - -         COORDINATE      COORDINATE
 NO.   TYPE    I  J  K  L  M  N        (BOHR,RAD)       (ANG,DEG)
 ----------------------------------------------------------------
   1 STRETCH   1  3                     4.5353424       2.4000000
   2 STRETCH   2  4                     3.3538460       1.7747790
   3 STRETCH   2  3                     3.3196218       1.7566683
   4 STRETCH   2  6                     3.3539733       1.7748464
   5 STRETCH   2  5                     3.3538992       1.7748072
   6 STRETCH   4  8                     2.0679643       1.0943196
   7 STRETCH   4  7                     2.0574453       1.0887532
   8 STRETCH   4  9                     2.0572881       1.0886701
   9 STRETCH   5 12                     2.0573449       1.0887001
  10 STRETCH   5 11                     2.0679960       1.0943364
  11 STRETCH   5 10                     2.0573635       1.0887099
  12 STRETCH   6 15                     2.0678311       1.0942492
  13 STRETCH   6 14                     2.0574193       1.0887395
  14 STRETCH   6 13                     2.0574658       1.0887641
  15 BEND      1  3  2                  3.1407285     179.9504864
  16 BEND      2  5 11                  1.8647629     106.8430437
  17 BEND      2  4  8                  1.8654887     106.8846315
  18 BEND      2  6 13                  1.9363405     110.9441357
  19 BEND      2  6 14                  1.9367673     110.9685932
  20 BEND      2  4  9                  1.9363663     110.9456164
  21 BEND      2  5 12                  1.9367468     110.9674169
  22 BEND      2  5 10                  1.9366586     110.9623649
  23 BEND      2  4  7                  1.9362777     110.9405404
  24 BEND      2  6 15                  1.8648449     106.8477426
  25 BEND      3  2  4                  1.8625915     106.7186329
  26 BEND      3  2  5                  1.8629232     106.7376352
  27 BEND      3  2  6                  1.8629692     106.7402727
  28 BEND      4  2  6                  1.9560829     112.0752918
  29 BEND      4  2  5                  1.9558860     112.0640120
  30 BEND      5  2  6                  1.9557846     112.0582053
  31 BEND      7  4  9                  1.9373963     111.0046285
  32 BEND      7  4  8                  1.8926647     108.4417006
  33 BEND      8  4  9                  1.8931684     108.4705596
  34 BEND     10  5 11                  1.8926604     108.4414529
  35 BEND     10  5 12                  1.9375674     111.0144323
  36 BEND     11  5 12                  1.8929064     108.4555452
  37 BEND     13  6 14                  1.9376724     111.0204481
  38 BEND     13  6 15                  1.8928290     108.4511126
  39 BEND     14  6 15                  1.8928573     108.4527372
  40 TORSION   1  3  2  5               0.6078242      34.8257609
  41 TORSION   1  3  2  4               2.7021086     154.8194185
  42 TORSION   1  3  2  6              -1.4865386     -85.1723901
  43 TORSION   3  2  4  8              -3.1397635    -179.8951976
  44 TORSION   3  2  6 15               3.1406228     179.9444323
  45 TORSION   3  2  6 14              -1.0822197     -62.0066193
  46 TORSION   3  2  4  7              -1.0795371     -61.8529181
  47 TORSION   3  2  5 10              -1.0836507     -62.0886112
  48 TORSION   3  2  6 13               1.0805476      61.9108182
  49 TORSION   3  2  5 11               3.1395369     179.8822159
  50 TORSION   3  2  5 12               1.0791952      61.8333328
  51 TORSION   3  2  4  9               1.0825410      62.0250294
  52 TORSION   4  2  6 15              -1.1093065     -63.5585802
  53 TORSION   4  2  6 14               0.9510363      54.4903681
  54 TORSION   4  2  5 10              -3.1167730    -178.5779384
  55 TORSION   4  2  6 13               3.1138036     178.4078057
  56 TORSION   4  2  5 12              -0.9539271     -54.6559945
  57 TORSION   4  2  5 11               1.1064146      63.3928887
  58 TORSION   5  2  6 15               1.1071274      63.4337280
  59 TORSION   5  2  6 14              -3.1157151    -178.5173236
  60 TORSION   5  2  4  7               0.9537852      54.6478664
  61 TORSION   5  2  6 13              -0.9529478     -54.5998861
  62 TORSION   5  2  4  9               3.1158633     178.5258139
  63 TORSION   5  2  4  8              -1.1064412     -63.3944130
  64 TORSION   6  2  4  7              -3.1130207    -178.3629494
  65 TORSION   6  2  5 10               0.9498725      54.4236833
  66 TORSION   6  2  5 11              -1.1101252     -63.6054896
  67 TORSION   6  2  5 12               3.1127184     178.3456273
  68 TORSION   6  2  4  9              -0.9509427     -54.4850018
  69 TORSION   6  2  4  8               1.1099381      63.5947712

     ------------------------------------------
     THE POINT GROUP IS C1 , NAXIS= 0, ORDER= 1
     ------------------------------------------

 -- VARIATIONAL SPACE WILL BE RESTRICTED TO PURE SPHERICAL HARMONICS ONLY --
 AFTER EXCLUDING CONTAMINANT COMBINATIONS FROM THE CARTESIAN GAUSSIAN BASIS
 SET, THE NUMBER OF SPHERICAL HARMONICS KEPT IN THE VARIATION SPACE IS  316

     DIMENSIONS OF THE SYMMETRY SUBSPACES ARE
 A   =  316

 ..... DONE SETTING UP THE RUN .....
 CPU     0: STEP CPU TIME=     0.08 TOTAL CPU TIME=        0.1 (    0.0 MIN)
 TOTAL WALL CLOCK TIME=        0.2 SECONDS, CPU UTILIZATION IS  50.00%


          -----------------------------
          STATIONARY POINT LOCATION RUN
          -----------------------------


           ** GEOMETRY CONSTRAINTS ARE BEING APPLIED. **

          TRANSFORMING DISPLACEMENT FROM INTERNALS TO CARTESIANS
          THE ROOT MEAN SQUARE ERROR IN ITERATION   1 IS   0.00000000
 WARNING! THE RADIUS IN CARTESIANS IS    0.00000
 OBTAINING INITIAL HESSIAN, HESS=GUESS   
 DIAGONAL GUESS HESSIAN IN INTERNAL COORDS IS
     1  0.3267     2  0.4333     3  0.3624     4  0.4333     5  0.4333
     6  0.3435     7  0.3472     8  0.3473     9  0.3472    10  0.3435
    11  0.3472    12  0.3435    13  0.3472    14  0.3472    15  0.2846
    16  0.2409    17  0.2409    18  0.2412    19  0.2412    20  0.2412
    21  0.2412    22  0.2412    23  0.2412    24  0.2409    25  0.2785
    26  0.2785    27  0.2785    28  0.2914    29  0.2914    30  0.2914
    31  0.2035    32  0.2032    33  0.2033    34  0.2032    35  0.2035
    36  0.2032    37  0.2035    38  0.2032    39  0.2033    40  0.2500
    41  0.2500    42  0.2500    43  0.2500    44  0.2500    45  0.2500
    46  0.2500    47  0.2500    48  0.2500    49  0.2500    50  0.2500
    51  0.2500    52  0.2500    53  0.2500    54  0.2500    55  0.2500
    56  0.2500    57  0.2500    58  0.2500    59  0.2500    60  0.2500
    61  0.2500    62  0.2500    63  0.2500    64  0.2500    65  0.2500
    66  0.2500    67  0.2500    68  0.2500    69  0.2500
 TRANSFORMING HESSIAN TO SYMMETRY COORDINATES

          PARAMETERS CONTROLLING GEOMETRY SEARCH ARE
          METHOD =QA                  UPHESS =BFGS    
          NNEG   =         0          NFRZ   =         0
          NSTEP  =        50          IFOLOW =         1
          HESS   =GUESS               RESTAR =         F
          IHREP  =         0          HSSEND =         F
          NPRT   =         0          NPUN   =         0
          OPTTOL = 1.000E-04          RMIN   = 1.500E-03
          RMAX   = 1.000E-01          RLIM   = 7.000E-02
          DXMAX  = 3.000E-01          PURIFY =         F
          MOVIE  =         F          TRUPD  =         T
          TRMAX  = 5.000E-01          TRMIN  = 5.000E-02
          ITBMAT =         5          STPT   =         F
          STSTEP = 1.000E-02          PROJCT=          T

 BEGINNING GEOMETRY SEARCH POINT NSERCH=   0 ...

 COORDINATES OF ALL ATOMS ARE (ANGS)
   ATOM   CHARGE       X              Y              Z
 ------------------------------------------------------------
 LA         57.0  -0.1739353441   1.1341682690  -4.0490164368
 P          15.0  -0.0297378261   0.2251316952   0.0044694868
 O           8.0  -0.0915503491   0.6093726151  -1.7085459212
 C           6.0  -1.4792297222   0.9375874590   0.7401463622
 C           6.0   1.4627891297   0.9478763285   0.6368806744
 C           6.0  -0.0188078467  -1.5451483527   0.1312322400
 H           1.0  -1.4809783890   2.0204205300   0.6267749642
 H           1.0  -1.4424971259   0.7013846814   1.8080388861
 H           1.0  -2.3836243110   0.4998823250   0.3209958472
 H           1.0   2.3388576183   0.5159092263   0.1560503926
 H           1.0   1.5019749290   0.7113144574   1.7046236983
 H           1.0   1.4495519885   2.0306300033   0.5240216717
 H           1.0   0.8633826530  -1.9643396979  -0.3498350655
 H           1.0  -0.9301893484  -1.9711948407  -0.2849669647
 H           1.0   0.0207023420  -1.7864951772   1.1978023939


                     --------------------
                     INTERNAL COORDINATES
                     --------------------

                 - - ATOMS - -         COORDINATE      COORDINATE
 NO.   TYPE    I  J  K  L  M  N        (BOHR,RAD)       (ANG,DEG)
 ----------------------------------------------------------------
   1 STRETCH   1  3                     4.5353424       2.4000000
   2 STRETCH   2  4                     3.3538460       1.7747790
   3 STRETCH   2  3                     3.3196218       1.7566683
   4 STRETCH   2  6                     3.3539733       1.7748464
   5 STRETCH   2  5                     3.3538992       1.7748072
   6 STRETCH   4  8                     2.0679643       1.0943196
   7 STRETCH   4  7                     2.0574453       1.0887532
   8 STRETCH   4  9                     2.0572881       1.0886701
   9 STRETCH   5 12                     2.0573449       1.0887001
  10 STRETCH   5 11                     2.0679960       1.0943364
  11 STRETCH   5 10                     2.0573635       1.0887099
  12 STRETCH   6 15                     2.0678311       1.0942492
  13 STRETCH   6 14                     2.0574193       1.0887395
  14 STRETCH   6 13                     2.0574658       1.0887641
  15 BEND      1  3  2                  3.1407285     179.9504864
  16 BEND      2  5 11                  1.8647629     106.8430437
  17 BEND      2  4  8                  1.8654887     106.8846315
  18 BEND      2  6 13                  1.9363405     110.9441357
  19 BEND      2  6 14                  1.9367673     110.9685932
  20 BEND      2  4  9                  1.9363663     110.9456164
  21 BEND      2  5 12                  1.9367468     110.9674169
  22 BEND      2  5 10                  1.9366586     110.9623649
  23 BEND      2  4  7                  1.9362777     110.9405404
  24 BEND      2  6 15                  1.8648449     106.8477426
  25 BEND      3  2  4                  1.8625915     106.7186329
  26 BEND      3  2  5                  1.8629232     106.7376352
  27 BEND      3  2  6                  1.8629692     106.7402727
  28 BEND      4  2  6                  1.9560829     112.0752918
  29 BEND      4  2  5                  1.9558860     112.0640120
  30 BEND      5  2  6                  1.9557846     112.0582053
  31 BEND      7  4  9                  1.9373963     111.0046285
  32 BEND      7  4  8                  1.8926647     108.4417006
  33 BEND      8  4  9                  1.8931684     108.4705596
  34 BEND     10  5 11                  1.8926604     108.4414529
  35 BEND     10  5 12                  1.9375674     111.0144323
  36 BEND     11  5 12                  1.8929064     108.4555452
  37 BEND     13  6 14                  1.9376724     111.0204481
  38 BEND     13  6 15                  1.8928290     108.4511126
  39 BEND     14  6 15                  1.8928573     108.4527372
  40 TORSION   1  3  2  5               0.6078242      34.8257609
  41 TORSION   1  3  2  4               2.7021086     154.8194186
  42 TORSION   1  3  2  6              -1.4865386     -85.1723901
  43 TORSION   3  2  4  8              -3.1397635    -179.8951976
  44 TORSION   3  2  6 15               3.1406228     179.9444323
  45 TORSION   3  2  6 14              -1.0822197     -62.0066193
  46 TORSION   3  2  4  7              -1.0795371     -61.8529181
  47 TORSION   3  2  5 10              -1.0836507     -62.0886112
  48 TORSION   3  2  6 13               1.0805476      61.9108182
  49 TORSION   3  2  5 11               3.1395369     179.8822159
  50 TORSION   3  2  5 12               1.0791952      61.8333328
  51 TORSION   3  2  4  9               1.0825410      62.0250294
  52 TORSION   4  2  6 15              -1.1093065     -63.5585802
  53 TORSION   4  2  6 14               0.9510363      54.4903681
  54 TORSION   4  2  5 10              -3.1167730    -178.5779384
  55 TORSION   4  2  6 13               3.1138036     178.4078057
  56 TORSION   4  2  5 12              -0.9539271     -54.6559945
  57 TORSION   4  2  5 11               1.1064146      63.3928887
  58 TORSION   5  2  6 15               1.1071274      63.4337280
  59 TORSION   5  2  6 14              -3.1157151    -178.5173236
  60 TORSION   5  2  4  7               0.9537852      54.6478664
  61 TORSION   5  2  6 13              -0.9529478     -54.5998861
  62 TORSION   5  2  4  9               3.1158633     178.5258139
  63 TORSION   5  2  4  8              -1.1064412     -63.3944130
  64 TORSION   6  2  4  7              -3.1130207    -178.3629494
  65 TORSION   6  2  5 10               0.9498725      54.4236833
  66 TORSION   6  2  5 11              -1.1101252     -63.6054896
  67 TORSION   6  2  5 12               3.1127184     178.3456273
  68 TORSION   6  2  4  9              -0.9509427     -54.4850018
  69 TORSION   6  2  4  8               1.1099381      63.5947712

          ********************
          1 ELECTRON INTEGRALS
          ********************
 TIME TO DO ORDINARY INTEGRALS=      0.02
 TIME TO DO      ECP INTEGRALS=      0.04
 ...... END OF ONE-ELECTRON INTEGRALS ......
 CPU     0: STEP CPU TIME=     0.07 TOTAL CPU TIME=        0.1 (    0.0 MIN)
 TOTAL WALL CLOCK TIME=        0.3 SECONDS, CPU UTILIZATION IS  53.57%

          -------------
          GUESS OPTIONS
          -------------
          GUESS =HUCKEL            NORB  =       0          NORDER=       0
          MIX   =       F          PRTMO =       F          PUNMO =       F
          TOLZ  = 1.0E-08          TOLE  = 1.0E-05
          SYMDEN=       F          PURIFY=       F

 INITIAL GUESS ORBITALS GENERATED BY HUCKEL   ROUTINE.
 HUCKEL GUESS REQUIRES    916545 WORDS.

 STATISTICS FOR GENERATION OF SYMMETRY ORBITAL -Q- MATRIX
 NUMBER OF CARTESIAN ATOMIC ORBITALS=        354
 NUMBER OF SPHERICAL CONTAMINANTS DROPPED=    38
 NUMBER OF LINEARLY DEPENDENT MOS DROPPED=     0
 TOTAL NUMBER OF MOS IN VARIATION SPACE=     316

 SYMMETRIES FOR INITIAL GUESS ORBITALS FOLLOW.   BOTH SET(S).
    29 ORBITALS ARE OCCUPIED (   13 CORE ORBITALS).
    14=A       15=A       16=A       17=A       18=A       19=A       20=A   
    21=A       22=A       23=A       24=A       25=A       26=A       27=A   
    28=A       29=A       30=A       31=A       32=A       33=A       34=A   
    35=A       36=A       37=A       38=A       39=A   
 ...... END OF INITIAL ORBITAL SELECTION ......
 CPU     0: STEP CPU TIME=     0.21 TOTAL CPU TIME=        0.4 (    0.0 MIN)
 TOTAL WALL CLOCK TIME=        0.8 SECONDS, CPU UTILIZATION IS  48.00%

                    ----------------------
                    AO INTEGRAL TECHNOLOGY
                    ----------------------
     S,P,L SHELL ROTATED AXIS INTEGRALS, REPROGRAMMED BY
        KAZUYA ISHIMURA (IMS) AND JOSE SIERRA (SYNSTAR).
     S,P,D,L SHELL ROTATED AXIS INTEGRALS PROGRAMMED BY
        KAZUYA ISHIMURA (INSTITUTE FOR MOLECULAR SCIENCE).
     S,P,D,F,G SHELL TO TOTAL QUARTET ANGULAR MOMENTUM SUM 5,
        ERIC PROGRAM BY GRAHAM FLETCHER (ELORET AND NASA ADVANCED
        SUPERCOMPUTING DIVISION, AMES RESEARCH CENTER).
     S,P,D,F,G,L SHELL GENERAL RYS QUADRATURE PROGRAMMED BY
        MICHEL DUPUIS (PACIFIC NORTHWEST NATIONAL LABORATORY).

          --------------------
          2 ELECTRON INTEGRALS
          --------------------

 DIRECT SCF METHOD SKIPS INTEGRAL STORAGE ON DISK.
 DIRECT TRANSFORMATION SKIPS AO INTEGRAL STORAGE ON DISK.
  ...... END OF TWO-ELECTRON INTEGRALS .....
 CPU     0: STEP CPU TIME=     0.00 TOTAL CPU TIME=        0.4 (    0.0 MIN)
 TOTAL WALL CLOCK TIME=        0.8 SECONDS, CPU UTILIZATION IS  47.37%

          --------------------------
                 RHF SCF CALCULATION
          --------------------------

     NUCLEAR ENERGY =       325.9998702323
     MAXIT =  200     NPUNCH=    2
     EXTRAP=T  DAMP=F  SHIFT=F  RSTRCT=F  DIIS=F  DEM=F  SOSCF=T
     DENSITY MATRIX CONV=  2.00E-06
     SOSCF WILL OPTIMIZE    8323 ORBITAL ROTATIONS, SOGTOL=   0.250
     MEMORY REQUIRED FOR RHF ITERS=    982670 WORDS.

 DIRECT SCF CALCULATION, SCHWRZ=T   FDIFF=F,  DIRTHR=  0.00E+00 NITDIR=10
 SCHWARZ INEQUALITY OVERHEAD:     62118 INTEGRALS, T=        0.01

                                                                                   NONZERO     BLOCKS
 ITER EX DEM     TOTAL ENERGY        E CHANGE  DENSITY CHANGE     ORB. GRAD      INTEGRALS    SKIPPED
   1  0  0     -563.4785969293  -563.4785969293   0.368051292   0.000000000     1434133222    4351994
          ---------------START SECOND ORDER SCF---------------
   2  1  0     -564.5707534905    -1.0921565612   0.118319692   0.049350638     1420040686    4677418
   3  2  0     -564.6529782459    -0.0822247555   0.046491779   0.036968743     1419048497    4681209
   4  3  0     -564.6899464217    -0.0369681757   0.017432038   0.007110034     1419589168    4672489
   5  4  0     -564.6914084606    -0.0014620389   0.005663294   0.004308000     1420141913    4665012
   6  5  0     -564.6919527665    -0.0005443060   0.002335522   0.000912064     1420146526    4664075
   7  6  0     -564.6919826739    -0.0000299074   0.001000290   0.000290933     1420160327    4663659
   8  7  0     -564.6919862768    -0.0000036028   0.000180846   0.000080683     1420180649    4663555
   9  8  0     -564.6919865856    -0.0000003088   0.000067194   0.000034112     1420189136    4663534
  10  9  0     -564.6919866270    -0.0000000414   0.000030898   0.000012423     1420190725    4663537
  11 10  0     -564.6919866338    -0.0000000068   0.000011866   0.000004350     1420188032    4663553
  12 11  0     -564.6919866349    -0.0000000011   0.000005172   0.000001378     1420188251    4663547
  13 12  0     -564.6919866351    -0.0000000002   0.000001905   0.000000574     1420188247    4663548
  14 13  0     -564.6919866351    -0.0000000000   0.000001183   0.000000238     1420188259    4663547

          -----------------
          DENSITY CONVERGED
          -----------------
     TIME TO FORM FOCK OPERATORS=      89.6 SECONDS (       6.4 SEC/ITER)
     FOCK TIME ON FIRST ITERATION=       6.5, LAST ITERATION=       6.4
     TIME TO SOLVE SCF EQUATIONS=       0.4 SECONDS (       0.0 SEC/ITER)

 FINAL RHF ENERGY IS     -564.6919866351 AFTER  14 ITERATIONS

          ------------
          EIGENVECTORS
          ------------

                      1          2          3          4          5
                  -80.4464   -20.9953   -11.6103   -11.6103   -11.6103
                     A          A          A          A          A   
    1  LA 1  S    0.000003  -0.000008   0.000000   0.000005   0.000006
    2  LA 1  X    0.000000   0.000000  -0.000005  -0.000006   0.000005
    3  LA 1  Y   -0.000001  -0.000001  -0.000008   0.000003  -0.000004
    4  LA 1  Z    0.000006   0.000003  -0.000001   0.000006   0.000005
    5  LA 1 XX    0.000003  -0.000007   0.000004  -0.000004  -0.000001
    6  LA 1 YY    0.000002  -0.000006  -0.000005   0.000001  -0.000004
    7  LA 1 ZZ   -0.000005   0.000013   0.000001   0.000002   0.000005
    8  LA 1 XY    0.000000  -0.000000   0.000003   0.000003  -0.000003
    9  LA 1 XZ   -0.000000   0.000001   0.000003   0.000004  -0.000003
   10  LA 1 YZ    0.000002  -0.000005   0.000002  -0.000002  -0.000001
   11  LA 1 XX    0.000002   0.000050  -0.000008   0.000026   0.000024
   12  LA 1 YY    0.000001   0.000043   0.000012   0.000013   0.000027
   13  LA 1 ZZ   -0.000003  -0.000094  -0.000004  -0.000039  -0.000050
   14  LA 1 XY    0.000000   0.000001  -0.000006  -0.000007   0.000007
   15  LA 1 XZ   -0.000000  -0.000006  -0.000004  -0.000008   0.000001
   16  LA 1 YZ    0.000001   0.000037  -0.000000   0.000017   0.000019
   17  LA 1  S   -0.000010  -0.000077  -0.000008  -0.000113  -0.000140
   18  LA 1  X    0.000000  -0.000002  -0.000011  -0.000014   0.000009
   19  LA 1  Y   -0.000000   0.000014  -0.000016   0.000018   0.000006
   20  LA 1  Z    0.000001  -0.000064  -0.000006  -0.000041  -0.000055
   21  LA 1  S    0.000005   0.000048   0.000012   0.000170   0.000210
   22  LA 1  X    0.000000   0.000001   0.000027   0.000036  -0.000020
   23  LA 1  Y   -0.000000  -0.000009   0.000038  -0.000054  -0.000026
   24  LA 1  Z    0.000000   0.000042   0.000018   0.000140   0.000185
   25  LA 1  S   -0.000009   0.000013  -0.000001  -0.000008  -0.000010
   26  LA 1  X   -0.000001  -0.000001   0.000009   0.000009  -0.000009
   27  LA 1  Y    0.000004   0.000008   0.000013  -0.000002   0.000010
   28  LA 1  Z   -0.000019  -0.000035   0.000001  -0.000022  -0.000024
   29  LA 1 XX   -0.000001  -0.000015   0.000008  -0.000046  -0.000051
   30  LA 1 YY   -0.000001  -0.000013  -0.000024  -0.000026  -0.000053
   31  LA 1 ZZ    0.000002   0.000028   0.000016   0.000072   0.000104
   32  LA 1 XY   -0.000000  -0.000000   0.000003   0.000001  -0.000004
   33  LA 1 XZ    0.000000   0.000002   0.000022   0.000031  -0.000016
   34  LA 1 YZ   -0.000001  -0.000011   0.000025  -0.000046  -0.000029
   35  P  2  S    1.000136   0.000073   0.000006   0.000088   0.000109
   36  P  2  S    0.000166   0.000450   0.000045   0.000626   0.000775
   37  P  2  S    0.000182   0.000591   0.000070   0.000970   0.001201
   38  P  2  S   -0.000939  -0.000179  -0.000023  -0.000314  -0.000389
   39  P  2  S   -0.000368  -0.002394   0.000011   0.000134   0.000165
   40  P  2  X   -0.000003  -0.000004   0.000317   0.000375  -0.000311
   41  P  2  Y    0.000017   0.000022   0.000475  -0.000284   0.000135
   42  P  2  Z   -0.000074  -0.000098   0.000106   0.000075   0.000230
   43  P  2  X   -0.000002  -0.000010   0.000835   0.000986  -0.000818
   44  P  2  Y    0.000014   0.000062   0.001250  -0.000745   0.000360
   45  P  2  Z   -0.000064  -0.000278   0.000278   0.000182   0.000586
   46  P  2  X    0.000001   0.000004  -0.000036  -0.000043   0.000035
   47  P  2  Y   -0.000008  -0.000026  -0.000054   0.000035  -0.000012
   48  P  2  Z    0.000038   0.000117  -0.000013  -0.000020  -0.000040
   49  P  2  X   -0.000003   0.000051  -0.000044  -0.000039   0.000056
   50  P  2  Y    0.000019  -0.000318  -0.000069  -0.000029  -0.000101
   51  P  2  Z   -0.000083   0.001412   0.000009   0.000293   0.000343
   52  P  2 XX   -0.000003  -0.000064   0.000206  -0.000063   0.000112
   53  P  2 YY   -0.000003  -0.000055  -0.000226   0.000154  -0.000048
   54  P  2 ZZ    0.000006   0.000120   0.000021  -0.000091  -0.000064
   55  P  2 XY   -0.000000  -0.000002   0.000132   0.000150  -0.000127
   56  P  2 XZ    0.000000   0.000008   0.000095   0.000120  -0.000111
   57  P  2 YZ   -0.000003  -0.000048   0.000050  -0.000006   0.000056
   58  P  2 XX   -0.000025  -0.000026   0.000292   0.000056   0.000294
   59  P  2 YY   -0.000021  -0.000023  -0.000390   0.000364   0.000036
   60  P  2 ZZ    0.000046   0.000049   0.000098  -0.000420  -0.000330
   61  P  2 XY   -0.000001  -0.000001   0.000145   0.000152  -0.000122
   62  P  2 XZ    0.000003   0.000003   0.000295   0.000339  -0.000333
   63  P  2 YZ   -0.000018  -0.000020   0.000316  -0.000040   0.000278
   64  P  2 XXX   0.000001   0.000010   0.000024   0.000030  -0.000017
   65  P  2 YYY  -0.000006   0.000028   0.000028  -0.000078  -0.000064
   66  P  2 ZZZ  -0.000013  -0.000184  -0.000032  -0.000039  -0.000086
   67  P  2 XXY  -0.000001  -0.000162   0.000017   0.000042   0.000062
   68  P  2 XXZ   0.000010   0.000111   0.000017   0.000044   0.000080
   69  P  2 YYX   0.000000   0.000003   0.000005   0.000006  -0.000002
   70  P  2 YYZ   0.000007   0.000135   0.000026   0.000008   0.000036
   71  P  2 ZZX  -0.000001  -0.000017  -0.000037  -0.000046   0.000025
   72  P  2 ZZY   0.000008   0.000125  -0.000055   0.000063   0.000024
   73  P  2 XYZ   0.000000   0.000012   0.000018   0.000026  -0.000023
   74  P  2 XX    0.000001   0.000022  -0.000005   0.000003  -0.000000
   75  P  2 YY    0.000001   0.000019   0.000005  -0.000002   0.000003
   76  P  2 ZZ   -0.000002  -0.000041  -0.000000  -0.000002  -0.000003
   77  P  2 XY    0.000000   0.000001  -0.000003  -0.000004   0.000003
   78  P  2 XZ   -0.000000  -0.000003  -0.000001  -0.000002   0.000001
   79  P  2 YZ    0.000001   0.000016   0.000000   0.000001   0.000001
   80  O  3  S    0.000000   0.975756   0.000002   0.000028   0.000035
   81  O  3  S    0.000001  -0.001104   0.000003   0.000042   0.000052
   82  O  3  S    0.000005   0.043160  -0.000001  -0.000012  -0.000015
   83  O  3  S   -0.000069   0.004790   0.000011   0.000143   0.000176
   84  O  3  X    0.000000   0.000020  -0.000005  -0.000006   0.000004
   85  O  3  Y   -0.000000  -0.000121  -0.000007   0.000006   0.000001
   86  O  3  Z    0.000001   0.000537  -0.000002  -0.000012  -0.000016
   87  O  3  X   -0.000001  -0.000019   0.000012   0.000016  -0.000011
   88  O  3  Y    0.000004   0.000119   0.000018  -0.000019  -0.000004
   89  O  3  Z   -0.000016  -0.000530   0.000007   0.000037   0.000051
[...]
            143  C  4 XXY     0.00128     0.07597
            144  C  4 XXZ     0.00083     0.07716
            145  C  4 YYX     0.00084     0.06915
            146  C  4 YYZ     0.00136     0.06649
            147  C  4 ZZX     0.00000     0.06974
            148  C  4 ZZY     0.00000     0.06673
            149  C  4 XYZ     0.00000     0.00298
            150  C  5  S      1.95556     1.55550
            151  C  5  S      0.82764     0.43099
            152  C  5  S      0.16169     0.27781
            153  C  5  S      0.32518     0.14851
            154  C  5  X      0.27252     0.21121
            155  C  5  Y      0.29415     0.22606
            156  C  5  Z      0.29349     0.22569
            157  C  5  X      0.51524     0.26583
            158  C  5  Y      0.53823     0.27928
            159  C  5  Z      0.53864     0.28014
            160  C  5  X      0.13884     0.18421
            161  C  5  Y      0.19204     0.20342
            162  C  5  Z      0.23034     0.20970
            163  C  5 XX      0.00523     0.08565
            164  C  5 YY      0.00526     0.08686
            165  C  5 ZZ      0.00422     0.08567
            166  C  5 XY      0.00421     0.00465
            167  C  5 XZ      0.00336     0.00456
            168  C  5 YZ      0.00000     0.00377
            169  C  5 XX      0.00877     0.09199
            170  C  5 YY      0.01274     0.09066
            171  C  5 ZZ      0.01145     0.08559
            172  C  5 XY      0.01042     0.02640
            173  C  5 XZ      0.00817     0.02500
            174  C  5 YZ      0.00000     0.01540
            175  C  5 XXX     0.00091     0.15941
            176  C  5 YYY     0.00073     0.17159
            177  C  5 ZZZ     0.00082     0.16830
            178  C  5 XXY     0.00126     0.07620
            179  C  5 XXZ     0.00087     0.07830
            180  C  5 YYX     0.00079     0.06900
            181  C  5 YYZ     0.00137     0.06678
            182  C  5 ZZX     0.00000     0.07009
            183  C  5 ZZY     0.00000     0.06660
            184  C  5 XYZ     0.00000     0.00291
            185  C  6  S      1.95556     1.55588
            186  C  6  S      0.82764     0.43301
            187  C  6  S      0.16169     0.27886
            188  C  6  S      0.32519     0.14938
            189  C  6  X      0.30073     0.22844
            190  C  6  Y      0.26070     0.20745
            191  C  6  Z      0.29872     0.22893
            192  C  6  X      0.54408     0.27950
            193  C  6  Y      0.50213     0.26661
            194  C  6  Z      0.54588     0.28013
            195  C  6  X      0.20376     0.20691
            196  C  6  Y      0.11181     0.17224
            197  C  6  Z      0.24565     0.21263
            198  C  6 XX      0.00568     0.08703
            199  C  6 YY      0.00600     0.09049
            200  C  6 ZZ      0.00357     0.08673
            201  C  6 XY      0.00432     0.00322
            202  C  6 XZ      0.00271     0.00456
            203  C  6 YZ      0.00000     0.00258
            204  C  6 XX      0.01078     0.08879
            205  C  6 YY      0.01482     0.10358
            206  C  6 ZZ      0.01019     0.08723
            207  C  6 XY      0.00866     0.02257
            208  C  6 XZ      0.00710     0.01983
            209  C  6 YZ      0.00000     0.01320
            210  C  6 XXX     0.00089     0.16278
            211  C  6 YYY     0.00095     0.16921
            212  C  6 ZZZ     0.00061     0.16660
            213  C  6 XXY     0.00141     0.07088
            214  C  6 XXZ     0.00094     0.07567
            215  C  6 YYX     0.00050     0.07866
            216  C  6 YYZ     0.00146     0.07294
            217  C  6 ZZX     0.00000     0.07404
            218  C  6 ZZY     0.00000     0.06411
            219  C  6 XYZ     0.00000     0.00268
            220  H  7  S      0.25353     0.19555
            221  H  7  S      0.45339     0.24545
            222  H  7  S      0.06432     0.12053
            223  H  7  X      0.00160     0.00207
            224  H  7  Y      0.00744     0.01098
            225  H  7  Z      0.00172     0.00219
            226  H  7  X      0.01053     0.02872
            227  H  7  Y      0.00483     0.04767
            228  H  7  Z      0.00882     0.02989
            229  H  7 XX      0.00031     0.06940
            230  H  7 YY      0.00065     0.11699
            231  H  7 ZZ      0.00101     0.06996
            232  H  7 XY      0.00009     0.00487
            233  H  7 XZ      0.00084     0.00015
            234  H  7 YZ      0.00000     0.00513
            235  H  8  S      0.24842     0.19107
            236  H  8  S      0.44894     0.24063
            237  H  8  S      0.04924     0.11546
            238  H  8  X      0.00161     0.00210
            239  H  8  Y      0.00186     0.00258
            240  H  8  Z      0.00730     0.01055
            241  H  8  X      0.00957     0.02894
            242  H  8  Y      0.00781     0.02900
            243  H  8  Z      0.00620     0.04761
            244  H  8 XX      0.00091     0.06818
            245  H  8 YY      0.00012     0.07064
            246  H  8 ZZ      0.00010     0.11254
            247  H  8 XY      0.00094     0.00020
            248  H  8 XZ      0.00079     0.00491
            249  H  8 YZ      0.00000     0.00540
            250  H  9  S      0.25353     0.18787
            251  H  9  S      0.45337     0.24340
            252  H  9  S      0.06427     0.12085
            253  H  9  X      0.00586     0.00773
            254  H  9  Y      0.00248     0.00354
            255  H  9  Z      0.00242     0.00340
            256  H  9  X      0.00979     0.04415
            257  H  9  Y      0.00706     0.03129
            258  H  9  Z      0.00733     0.03218
            259  H  9 XX      0.00047     0.09988
            260  H  9 YY      0.00090     0.07542
            261  H  9 ZZ      0.00063     0.07467
            262  H  9 XY      0.00065     0.00524
            263  H  9 XZ      0.00025     0.00527
            264  H  9 YZ      0.00000     0.00165
            265  H 10  S      0.25353     0.18718
            266  H 10  S      0.45337     0.24317
            267  H 10  S      0.06426     0.12083
            268  H 10  X      0.00562     0.00740
            269  H 10  Y      0.00246     0.00346
            270  H 10  Z      0.00268     0.00376
            271  H 10  X      0.01021     0.04362
            272  H 10  Y      0.00710     0.03118
            273  H 10  Z      0.00687     0.03291
            274  H 10 XX      0.00052     0.09795
            275  H 10 YY      0.00087     0.07479
            276  H 10 ZZ      0.00060     0.07678
            277  H 10 XY      0.00062     0.00495
            278  H 10 XZ      0.00028     0.00535
            279  H 10 YZ      0.00000     0.00192
            280  H 11  S      0.24842     0.19113
            281  H 11  S      0.44893     0.24059
            282  H 11  S      0.04924     0.11543
            283  H 11  X      0.00164     0.00218
            284  H 11  Y      0.00185     0.00258
            285  H 11  Z      0.00728     0.01049
            286  H 11  X      0.00992     0.02906
            287  H 11  Y      0.00782     0.02900
            288  H 11  Z      0.00584     0.04751
            289  H 11 XX      0.00088     0.06836
            290  H 11 YY      0.00013     0.07066
            291  H 11 ZZ      0.00010     0.11241
            292  H 11 XY      0.00095     0.00022
            293  H 11 XZ      0.00079     0.00493
            294  H 11 YZ      0.00000     0.00538
            295  H 12  S      0.25353     0.19554
            296  H 12  S      0.45339     0.24545
            297  H 12  S      0.06433     0.12051
            298  H 12  X      0.00159     0.00206
            299  H 12  Y      0.00744     0.01098
            300  H 12  Z      0.00172     0.00220
            301  H 12  X      0.01063     0.02881
            302  H 12  Y      0.00487     0.04773
            303  H 12  Z      0.00867     0.02977
            304  H 12 XX      0.00032     0.06942
            305  H 12 YY      0.00064     0.11699
            306  H 12 ZZ      0.00101     0.06994
            307  H 12 XY      0.00009     0.00485
            308  H 12 XZ      0.00083     0.00014
            309  H 12 YZ      0.00000     0.00515
            310  H 13  S      0.25353     0.18740
            311  H 13  S      0.45339     0.24267
            312  H 13  S      0.06431     0.12043
            313  H 13  X      0.00539     0.00688
            314  H 13  Y      0.00262     0.00396
            315  H 13  Z      0.00275     0.00389
            316  H 13  X      0.00441     0.04115
            317  H 13  Y      0.01279     0.03360
            318  H 13  Z      0.00698     0.03268
            319  H 13 XX      0.00051     0.09607
            320  H 13 YY      0.00073     0.07634
            321  H 13 ZZ      0.00072     0.07717
            322  H 13 XY      0.00060     0.00488
            323  H 13 XZ      0.00033     0.00523
            324  H 13 YZ      0.00000     0.00213
            325  H 14  S      0.25353     0.18817
            326  H 14  S      0.45338     0.24296
            327  H 14  S      0.06428     0.12045
            328  H 14  X      0.00563     0.00722
            329  H 14  Y      0.00265     0.00406
            330  H 14  Z      0.00248     0.00352
            331  H 14  X      0.00408     0.04190
            332  H 14  Y      0.01280     0.03375
            333  H 14  Z      0.00730     0.03177
            334  H 14 XX      0.00046     0.09812
            335  H 14 YY      0.00076     0.07705
            336  H 14 ZZ      0.00075     0.07498
            337  H 14 XY      0.00062     0.00519
            338  H 14 XZ      0.00030     0.00516
            339  H 14 YZ      0.00000     0.00184
            340  H 15  S      0.24842     0.19137
            341  H 15  S      0.44894     0.24071
            342  H 15  S      0.04924     0.11547
            343  H 15  X      0.00163     0.00210
            344  H 15  Y      0.00199     0.00305
            345  H 15  Z      0.00715     0.01020
            346  H 15  X      0.00797     0.02805
            347  H 15  Y      0.01130     0.03097
            348  H 15  Z      0.00431     0.04720
            349  H 15 XX      0.00085     0.06760
            350  H 15 YY      0.00019     0.07254
            351  H 15 ZZ      0.00011     0.11171
            352  H 15 XY      0.00077     0.00028
            353  H 15 XZ      0.00094     0.00504
            354  H 15 YZ      0.00000     0.00532

          ----- MULLIKEN ATOMIC OVERLAP POPULATIONS -----
          (OFF-DIAGONAL ELEMENTS NEED TO BE MULTIPLIED BY 2)

             1           2           3           4           5

    1    8.5081069
    2   -0.0065854  13.1932133
    3    0.1269049   0.2684810   8.3773903
    4    0.0001187   0.3440648  -0.0204463   5.0178770
    5    0.0001189   0.3440634  -0.0204502  -0.0324411   5.0178843
    6    0.0001175   0.3440670  -0.0204497  -0.0324246  -0.0324278
    7    0.0004513  -0.0163774   0.0007437   0.3651834  -0.0026066
    8    0.0004786  -0.0133006   0.0013264   0.3574909  -0.0001129
    9    0.0004480  -0.0163719   0.0007398   0.3652151   0.0024797
   10    0.0004478  -0.0163730   0.0007397   0.0024797   0.3652126
   11    0.0004784  -0.0132975   0.0013265  -0.0001099   0.3574913
   12    0.0004516  -0.0163779   0.0007447  -0.0026100   0.3651802
   13    0.0004507  -0.0163730   0.0007428   0.0024809  -0.0026149
   14    0.0004490  -0.0163702   0.0007405  -0.0026124   0.0024803
   15    0.0004794  -0.0133149   0.0013262  -0.0001106  -0.0001073

             6           7           8           9          10

    6    5.0178332
    7    0.0024813   0.4894183
    8   -0.0001098  -0.0117770   0.4620869
    9   -0.0026132  -0.0189456  -0.0117838   0.4893302
   10   -0.0026077  -0.0000043  -0.0000036  -0.0000774   0.4893157
   11   -0.0001137  -0.0001721  -0.0000696  -0.0000034  -0.0117810
   12    0.0024814   0.0007569  -0.0001715  -0.0000044  -0.0189474
   13    0.3651991  -0.0000775  -0.0000038  -0.0000039   0.0007614
   14    0.3652081  -0.0000041  -0.0001715   0.0007630  -0.0000037
   15    0.3574974  -0.0000037  -0.0000737  -0.0001724  -0.0001738

            11          12          13          14          15

   11    0.4620803
   12   -0.0117777   0.4894438
   13   -0.0001699  -0.0000045   0.4893988
   14   -0.0000041  -0.0000775  -0.0189465   0.4893539
   15   -0.0000728  -0.0000033  -0.0117789  -0.0117830   0.4620948

          TOTAL MULLIKEN AND LOWDIN ATOMIC POPULATIONS
       ATOM         MULL.POP.    CHARGE          LOW.POP.     CHARGE
    1 LA            8.632916    2.367084         8.799920    2.200080
    2 P            14.349148    0.650852        14.309303    0.690697
    3 O             8.719860   -0.719860         8.344336   -0.344336
    4 C             6.364156   -0.364156         6.032577   -0.032577
    5 C             6.364150   -0.364150         6.033721   -0.033721
    6 C             6.364139   -0.364139         6.047348   -0.047348
    7 H             0.809067    0.190933         0.949531    0.050469
    8 H             0.783805    0.216195         0.929817    0.070183
    9 H             0.809000    0.191000         0.936527    0.063473
   10 H             0.808985    0.191015         0.935240    0.064760
   11 H             0.783805    0.216195         0.929922    0.070078
   12 H             0.809084    0.190916         0.949534    0.050466
   13 H             0.809061    0.190939         0.934486    0.065514
   14 H             0.809022    0.190978         0.936142    0.063858
   15 H             0.783803    0.216197         0.931597    0.068403

          MULLIKEN SPHERICAL HARMONIC POPULATIONS
       ATOM           S       P       D      F      G      H      I    TOTAL
    1 LA            2.02    6.26    0.36   0.00   0.00   0.00   0.00    8.63
    2 P             5.33    8.37    0.57   0.07   0.00   0.00   0.00   14.35
    3 O             3.64    5.04    0.04   0.00   0.00   0.00   0.00    8.72
    4 C             3.27    3.01    0.07   0.01   0.00   0.00   0.00    6.36
    5 C             3.27    3.01    0.07   0.01   0.00   0.00   0.00    6.36
    6 C             3.27    3.01    0.07   0.01   0.00   0.00   0.00    6.36
    7 H             0.77    0.03    0.00   0.00   0.00   0.00   0.00    0.81
    8 H             0.75    0.03    0.00   0.00   0.00   0.00   0.00    0.78
    9 H             0.77    0.03    0.00   0.00   0.00   0.00   0.00    0.81
   10 H             0.77    0.03    0.00   0.00   0.00   0.00   0.00    0.81
   11 H             0.75    0.03    0.00   0.00   0.00   0.00   0.00    0.78
   12 H             0.77    0.03    0.00   0.00   0.00   0.00   0.00    0.81
   13 H             0.77    0.03    0.00   0.00   0.00   0.00   0.00    0.81
   14 H             0.77    0.03    0.00   0.00   0.00   0.00   0.00    0.81
   15 H             0.75    0.03    0.00   0.00   0.00   0.00   0.00    0.78

          -------------------------------
          BOND ORDER AND VALENCE ANALYSIS     BOND ORDER THRESHOLD=0.050
          -------------------------------

                   BOND                       BOND                       BOND
  ATOM PAIR DIST  ORDER      ATOM PAIR DIST  ORDER      ATOM PAIR DIST  ORDER
    1   3  2.400  0.583        2   3  1.703  0.840        2   4  1.774  1.007
    2   5  1.774  1.007        2   6  1.774  1.007        4   7  1.089  0.880
    4   8  1.094  0.861        4   9  1.089  0.880        5  10  1.089  0.880
    5  11  1.094  0.861        5  12  1.089  0.880        6  13  1.089  0.880
    6  14  1.089  0.880        6  15  1.094  0.861

                       TOTAL       BONDED        FREE
      ATOM            VALENCE     VALENCE     VALENCE
    1 LA                0.222       0.645      -0.422
    2 P                 4.623       4.233       0.390
    3 O                 2.229       1.459       0.770
    4 C                 3.934       3.641       0.293
    5 C                 3.934       3.641       0.293
    6 C                 3.934       3.641       0.293
    7 H                 0.979       0.928       0.051
    8 H                 0.969       0.918       0.051
    9 H                 0.979       0.928       0.051
   10 H                 0.979       0.928       0.051
   11 H                 0.969       0.918       0.051
   12 H                 0.979       0.928       0.051
   13 H                 0.979       0.928       0.051
   14 H                 0.979       0.928       0.051
   15 H                 0.969       0.918       0.051

          ---------------------
          ELECTROSTATIC MOMENTS
          ---------------------

 POINT   1           X           Y           Z (BOHR)    CHARGE
                -0.221195    1.465583   -4.629502        3.00 (A.U.)
         DX          DY          DZ         /D/  (DEBYE)
    -0.094687    0.595298   -2.654057    2.721647
 ...... END OF PROPERTY EVALUATION ......
 CPU     0: STEP CPU TIME=     0.21 TOTAL CPU TIME=     1684.5 (   28.1 MIN)
 TOTAL WALL CLOCK TIME=     1709.0 SECONDS, CPU UTILIZATION IS  98.57%
  $VIB   
          IVIB=   0 IATOM=   0 ICOORD=   0 E=     -565.5869096640
 -2.201330116E-07 1.019138343E-06 2.363748394E-07-3.327362691E-06 2.008217559E-05
 -7.500581334E-05 1.987429102E-06 7.779523901E-06-2.406900861E-05 1.978285582E-05
 -2.746262472E-05 7.517345290E-05-1.357402667E-05-3.218190364E-05 7.944767479E-05
  3.660070493E-06 8.340497858E-07 7.556184083E-05-5.206178286E-06-9.743440849E-07
 -2.453191588E-05-1.254193327E-05 1.236615042E-05-2.258754488E-06 2.933238328E-06
  3.179417552E-06-1.372364117E-05-3.890106153E-06 5.047843506E-06-1.500497892E-05
  1.032423269E-05 1.531375327E-05-2.547583647E-06 3.196632620E-06-9.205183434E-07
 -2.568090811E-05-7.254441772E-06 5.200188296E-06-2.167662551E-05 3.003664934E-06
  5.619688816E-06-1.674356043E-05 1.126057861E-06-1.490253869E-05-9.176553234E-06
 -9.468705756E-02 5.952979153E-01-2.654056736E+00
 ......END OF GEOMETRY SEARCH......
 CPU     0: STEP CPU TIME=     0.01 TOTAL CPU TIME=     1684.5 (   28.1 MIN)
 TOTAL WALL CLOCK TIME=     1709.0 SECONDS, CPU UTILIZATION IS  98.56%
               2991967  WORDS OF DYNAMIC MEMORY USED
 EXECUTION OF GAMESS TERMINATED NORMALLY Thu Jun  9 11:38:34 2016
 DDI: 44487344 bytes (42.4 MB / 5 MWords) used by master data server.

 ----------------------------------------
 CPU timing information for all processes
 ========================================
 0: 1681.912 + 2.671 = 1684.583
 1: 1682.947 + 2.572 = 1685.519
 2: 1684.52 + 2.633 = 1686.686
 3: 1682.667 + 2.597 = 1685.264
 4: 1685.84 + 2.560 = 1687.645
 5: 1684.121 + 2.504 = 1686.626
 6: 1685.106 + 2.627 = 1687.734
 7: 1684.605 + 2.595 = 1687.201
 8: 1684.970 + 2.699 = 1687.670
 9: 1686.155 + 2.485 = 1688.641
 10: 1685.710 + 2.624 = 1688.335
 11: 1685.447 + 2.563 = 1688.11
 12: 1685.259 + 2.656 = 1687.916
 13: 1684.823 + 2.506 = 1687.330
 14: 1684.843 + 2.552 = 1687.396
 15: 1684.499 + 1.959 = 1686.459
 16: 0.14 + 0.89 = 0.104
 17: 0.15 + 0.83 = 0.99
 18: 0.16 + 0.80 = 0.97
 19: 0.13 + 0.97 = 0.111
 20: 0.16 + 0.84 = 0.101
 21: 0.18 + 0.85 = 0.104
 22: 0.13 + 0.87 = 0.101
 23: 0.09 + 0.87 = 0.97
 24: 0.09 + 0.91 = 0.101
 25: 0.13 + 0.88 = 0.102
 26: 0.20 + 0.81 = 0.102
 27: 0.17 + 0.88 = 0.106
 28: 0.14 + 0.86 = 0.101
 29: 0.16 + 0.84 = 0.101
 30: 0.14 + 0.76 = 0.91
 31: 0.22 + 0.76 = 0.99
 ----------------------------------------
unset echo
----- accounting info -----
Files used on the master node node201 were:
-rw-r--r-- 1 fzahari quantum     1994 Jun  9 11:10 /local/scratch/fzahari/196594.share/bnd_var-024.F05
-rw-r--r-- 1 fzahari quantum 17178000 Jun  9 11:38 /local/scratch/fzahari/196594.share/bnd_var-024.F10
-rw-r--r-- 1 fzahari quantum        8 Jun  9 11:10 /local/scratch/fzahari/196594.share/bnd_var-024.nodes.mpd
ls: No match.
ls: No match.
ls: No match.
Thu Jun  9 11:38:37 CDT 2016
26953.094u 46.717s 28:33.46 1575.7%	0+0k 104+275808io 0pf+0w
