----- GAMESS execution script 'rungms' -----
This job is running on host node225
under operating system Linux at Thu Jun 9 11:00:04 CDT 2016
PBS has assigned the following compute nodes to this run:
node225
Available scratch disk space (Kbyte units) at beginning of the job is
Filesystem           1K-blocks      Used Available Use% Mounted on
/dev/sda7            2670838024    802024 2534365216   1% /local
GAMESS temporary binary files will be written to /local/scratch/fzahari/196590.share
GAMESS supplementary output files will be written to /work1/quantum/fzahari/scr
Copying input file bnd_var-020.inp to your run's scratch directory...
cp bnd_var-020.inp /local/scratch/fzahari/196590.share/bnd_var-020.F05
unset echo
setenv I_MPI_WAIT_MODE enable
setenv I_MPI_PIN disable
setenv I_MPI_DEBUG 0
setenv I_MPI_STATS 0
setenv I_MPI_FABRICS dapl
setenv I_MPI_DAT_LIBRARY libdat2.so
unset echo
MPI kickoff will run GAMESS on 16 cores in 1 nodes.
The binary to be executed is /home/mschmidt/gamess/gamess.132.x
MPI will run 16 compute processes and 16 data servers,
    placing 16 of each process type onto each node.
The scratch disk space on each node is /local/scratch/fzahari/196590.share, with free space
Filesystem           1K-blocks      Used Available Use% Mounted on
/dev/sda7            2670838024    802048 2534365192   1% /local
setenv I_MPI_HYDRA_ENV all
setenv I_MPI_PERHOST 32
unset echo
mpiexec.hydra -f /local/scratch/fzahari/196590.share/bnd_var-020.processes.mpd -n 32 /home/mschmidt/gamess/gamess.132.x
          ******************************************************
          *         GAMESS VERSION =  5 DEC 2014 (R1)          *
          *             FROM IOWA STATE UNIVERSITY             *
          * M.W.SCHMIDT, K.K.BALDRIDGE, J.A.BOATZ, S.T.ELBERT, *
          *   M.S.GORDON, J.H.JENSEN, S.KOSEKI, N.MATSUNAGA,   *
          *          K.A.NGUYEN, S.J.SU, T.L.WINDUS,           *
          *       TOGETHER WITH M.DUPUIS, J.A.MONTGOMERY       *
          *         J.COMPUT.CHEM.  14, 1347-1363(1993)        *
          **************** 64 BIT INTEL VERSION ****************

  SINCE 1993, STUDENTS AND POSTDOCS WORKING AT IOWA STATE UNIVERSITY
  AND ALSO IN THEIR VARIOUS JOBS AFTER LEAVING ISU HAVE MADE IMPORTANT
  CONTRIBUTIONS TO THE CODE:
     IVANA ADAMOVIC, CHRISTINE AIKENS, YURI ALEXEEV, POOJA ARORA,
     ANDREY ASADCHEV, ROB BELL, PRADIPTA BANDYOPADHYAY, JONATHAN BENTZ,
     BRETT BODE, KURT BRORSEN, CALEB CARLIN, GALINA CHABAN, WEI CHEN,
     CHEOL HO CHOI, PAUL DAY, ALBERT DEFUSCO, NUWAN DESILVA, TIM DUDLEY,
     DMITRI FEDOROV, GRAHAM FLETCHER, MARK FREITAG, KURT GLAESEMANN,
     DAN KEMP, GRANT MERRILL, NORIYUKI MINEZAWA, JONATHAN MULLIN,
     TAKESHI NAGATA, SEAN NEDD, HEATHER NETZLOFF, BOSILJKA NJEGIC, RYAN OLSON,
     MIKE PAK, SPENCER PRUITT, LUKE ROSKOP, JIM SHOEMAKER, LYUDMILA SLIPCHENKO,
     TONY SMITH, SAROM SOK, JIE SONG, TETSUYA TAKETSUGU, SIMON WEBB,
     PENG XU, SOOHAENG YOO, FEDERICO ZAHARIEV

  ADDITIONAL CODE HAS BEEN PROVIDED BY COLLABORATORS IN OTHER GROUPS:
     IOWA STATE UNIVERSITY:
          JOE IVANIC, AARON WEST, LAIMUTIS BYTAUTAS, KLAUS RUEDENBERG
     UNIVERSITY OF TOKYO: KIMIHIKO HIRAO, TAKAHITO NAKAJIMA,
          TAKAO TSUNEDA, MUNEAKI KAMIYA, SUSUMU YANAGISAWA,
          KIYOSHI YAGI, MAHITO CHIBA, SEIKEN TOKURA, NAOAKI KAWAKAMI
     UNIVERSITY OF AARHUS: FRANK JENSEN
     UNIVERSITY OF IOWA: VISVALDAS KAIRYS, HUI LI
     NATIONAL INST. OF STANDARDS AND TECHNOLOGY: WALT STEVENS, DAVID GARMER
     UNIVERSITY OF PISA: BENEDETTA MENNUCCI, JACOPO TOMASI
     UNIVERSITY OF MEMPHIS: HENRY KURTZ, PRAKASHAN KORAMBATH
     UNIVERSITY OF ALBERTA: TOBY ZENG, MARIUSZ KLOBUKOWSKI
     UNIVERSITY OF NEW ENGLAND: MARK SPACKMAN
     MIE UNIVERSITY: HIROAKI UMEDA
     NAT. INST. OF ADVANCED INDUSTRIAL SCIENCE AND TECHNOLOGY: KAZUO KITAURA
     MICHIGAN STATE UNIVERSITY:
          KAROL KOWALSKI, MARTA WLOCH, JEFFREY GOUR, JESSE LUTZ,
          WEI LI, PIOTR PIECUCH
     UNIVERSITY OF SILESIA: MONIKA MUSIAL, STANISLAW KUCHARSKI
     FACULTES UNIVERSITAIRES NOTRE-DAME DE LA PAIX:
          OLIVIER QUINET, BENOIT CHAMPAGNE
     UNIVERSITY OF CALIFORNIA - SANTA BARBARA: BERNARD KIRTMAN
     INSTITUTE FOR MOLECULAR SCIENCE:
          KAZUYA ISHIMURA, MICHIO KATOUDA, AND SHIGERU NAGASE
     UNIVERSITY OF NOTRE DAME: ANNA POMOGAEVA, DAN CHIPMAN
     KYUSHU UNIVERSITY:
          HARUYUKI NAKANO,
          FENG LONG GU, JACEK KORCHOWIEC, MARCIN MAKOWSKI, AND YURIKO AOKI,
          HIROTOSHI MORI AND EISAKU MIYOSHI
     PENNSYLVANIA STATE UNIVERSITY:
          TZVETELIN IORDANOV, CHET SWALINA, JONATHAN SKONE,
          SHARON HAMMES-SCHIFFER
     WASEDA UNIVERSITY:
          MASATO KOBAYASHI, TOMOKO AKAMA, TSUGUKI TOUMA,
          TAKESHI YOSHIKAWA, YASUHIRO IKABATA, HIROMI NAKAI
     NANJING UNIVERSITY: SHUHUA LI
     UNIVERSITY OF NEBRASKA:
          PEIFENG SU, DEJUN SI, NANDUN THELLAMUREGE, YALI WANG, HUI LI
     UNIVERSITY OF ZURICH: ROBERTO PEVERATI, KIM BALDRIDGE
     N. COPERNICUS UNIVERSITY AND JACKSON STATE UNIVERSITY:
          MARIA BARYSZ
     UNIVERSITY OF COPENHAGEN: CASPER STEINMANN
     TOKYO INSTITUTE OF TECHNOLOGY: HIROYA NAKATA
     NAGOYA UNIVERSITY: YOSHIO NISHIMOTO, STEPHAN IRLE


 PARALLEL VERSION RUNNING ON       16 PROCESSORS IN        1 NODES.

 EXECUTION OF GAMESS BEGUN Thu Jun  9 11:00:05 2016

            ECHO OF THE FIRST FEW INPUT CARDS -
 INPUT CARD> $ZMAT DLC=.T. AUTO=.T. $END                                                    
 INPUT CARD> $ZMAT IFZMAT(1)=1, 1 , 3  FVALUE(1)= 2.0 $END                                  
 INPUT CARD> $CONTRL COORD=UNIQUE NZVAR= 39 $END                                            
 INPUT CARD> $CONTRL ICHARG=+3 MULT=1                                                       
 INPUT CARD>         MPLEVL=2                                                               
 INPUT CARD>         SCFTYP=RHF                                                             
 INPUT CARD>         MAXIT=200 ISPHER=1 ICUT=11                                             
 INPUT CARD>         RUNTYP=OPTIMIZE                                                        
 INPUT CARD>         PP=READ                                                                
 INPUT CARD>         $END                                                                   
 INPUT CARD> $SCF    DIRSCF=.T. FDIFF=.F. $END                                              
 INPUT CARD> $TRANS  DIRTRF=.T. $END                                                        
 INPUT CARD> $SYSTEM MWORDS=300 MEMDDI=300 $END                                             
 INPUT CARD> $GUESS  GUESS=HUCKEL $END                                                      
 INPUT CARD> $BASIS  BASNAM(1)=METAL,                                                       
 INPUT CARD>                   LIGP,                                                        
 INPUT CARD>                   LIGO,                                                        
 INPUT CARD>                   LIGC,                                                        
 INPUT CARD>                   LIGC,                                                        
 INPUT CARD>                   LIGC,                                                        
 INPUT CARD>                   LIGH,                                                        
 INPUT CARD>                   LIGH,                                                        
 INPUT CARD>                   LIGH,                                                        
 INPUT CARD>                   LIGH,                                                        
 INPUT CARD>                   LIGH,                                                        
 INPUT CARD>                   LIGH,                                                        
 INPUT CARD>                   LIGH,                                                        
 INPUT CARD>                   LIGH,                                                        
 INPUT CARD>                   LIGH                                                         
 INPUT CARD> $END                                                                           
 INPUT CARD> $DATA                                                                          
 INPUT CARD>                                                                                
 INPUT CARD> C1                                                                             
 INPUT CARD> LA 57.0 -0.1739353441 1.134168269 -4.0490164368                                
 INPUT CARD> P 15.0 -0.0434686585692 0.312597637498 -0.385608932498                         
 INPUT CARD> O 8.0 -0.105281181569 0.696838557398 -2.0986243405                             
 INPUT CARD> C 6.0 -1.49296055467 1.0250534013 0.350067942902                               
 INPUT CARD> C 6.0 1.44905829723 1.0353422708 0.246802255102                                
 INPUT CARD> C 6.0 -0.0325386791692 -1.4576824104 -0.258846179298                           
 INPUT CARD> H 1.0 -1.49470922147 2.1078864723 0.236696544902                               
 INPUT CARD> H 1.0 -1.45622795837 0.788850623698 1.4179604668                               
 INPUT CARD> H 1.0 -2.39735514347 0.587348267298 -0.069082572098                            
 INPUT CARD> H 1.0 2.32512678583 0.603375168598 -0.234028026698                             
 INPUT CARD> H 1.0 1.48824409653 0.798780399698 1.314545279                                 
 INPUT CARD> H 1.0 1.43582115603 2.1180959456 0.133943252402                                
 INPUT CARD> H 1.0 0.849651820531 -1.8768737556 -0.739913484798                             
 INPUT CARD> H 1.0 -0.943920180869 -1.8837288984 -0.675045383998                            
 INPUT CARD> H 1.0 0.00697150953079 -1.6990292349 0.807723974602                            
 INPUT CARD> $END                                                                           
 INPUT CARD>!                                                                               
  300000000 WORDS OF MEMORY AVAILABLE

     BASIS OPTIONS
     -------------
     GBASIS=             IGAUSS=       0      POLAR=NONE    
     NDFUNC=       0     NFFUNC=       0     DIFFSP=       F
     NPFUNC=       0      DIFFS=       F     BASNAM=METAL   

 USING BASNAM FOR ATOM CUSTOMIZED BASIS CONSTRUCTION
     ----------------
     ATOM  BASIS NAME
     ----------------
       1   METAL   
       2   LIGP    
       3   LIGO    
       4   LIGC    
       5   LIGC    
       6   LIGC    
       7   LIGH    
       8   LIGH    
       9   LIGH    
      10   LIGH    
      11   LIGH    
      12   LIGH    
      13   LIGH    
      14   LIGH    
      15   LIGH    
 NOW LOCATING ALL   15 BASIS SETS IN YOUR INPUT FILE...
 FOUND BASIS SET  $METAL 
  SBKJC                        
                               
  $END                         
 FOUND BASIS SET  $LIGP  
  CCT                          
                               
  $END                         
 FOUND BASIS SET  $LIGO  
  CCT                          
                               
  $END                         
 FOUND BASIS SET  $LIGC  
  CCT                          
                               
  $END                         
 FOUND BASIS SET  $LIGH  
  CCT                          
                               
  $END                         
    5 UNIQUE ATOM CUSTOMIZED BASIS SETS WERE FOUND.

     SEARCHING FOR $MCP
     $MCP GROUP NOT FOUND


     RUN TITLE
     ---------
                                                                                 

 THE POINT GROUP OF THE MOLECULE IS C1      
 THE ORDER OF THE PRINCIPAL AXIS IS     0

 ATOM      ATOMIC                      COORDINATES (BOHR)
           CHARGE         X                   Y                   Z
 LA         57.0    -0.3286901399        2.1432672524       -7.6515315853
 P          15.0    -0.0821438537        0.5907238793       -0.7286952208
 O           8.0    -0.1989525848        1.3168339312       -3.9658249547
 C           6.0    -2.8212863588        1.9370700512        0.6615324892
 C           6.0     2.7383231220        1.9565131953        0.4663886353
 C           6.0    -0.0614891876       -2.7546203328       -0.4891483518
 H           1.0    -2.8245908599        3.9833278459        0.4472916121
 H           1.0    -2.7518718170        1.4907115240        2.6795567437
 H           1.0    -4.5303443164        1.1099272846       -0.1305471318
 H           1.0     4.3938525119        1.1402137364       -0.4422488439
 H           1.0     2.8123735453        1.5094760798        2.4841303758
 H           1.0     2.7133085523        4.0026209529        0.2531160449
 H           1.0     1.6056091258       -3.5467771116       -1.3982337409
 H           1.0    -1.7837504961       -3.5597314531       -1.2756508050
 H           1.0     0.0131742427       -3.2106996991        1.5263769857

          INTERNUCLEAR DISTANCES (ANGS.)
          ------------------------------

                1 LA         2 P          3 O          4 C          5 C     

   1 LA      0.0000000    3.7566680    2.0000000 *  4.5938738    4.5932487  
   2 P       3.7566680    0.0000000    1.7566683 *  1.7747790 *  1.7748072 *
   3 O       2.0000000 *  1.7566683 *  0.0000000    2.8336325 *  2.8340046 *
   4 C       4.5938738    1.7747790 *  2.8336325 *  0.0000000    2.9438486 *
   5 C       4.5932487    1.7748072 *  2.8340046 *  2.9438486 *  0.0000000  
   6 C       4.5938082    1.7748464 *  2.8340846 *  2.9440764 *  2.9438040 *
   7 H       4.5891074    2.3909047 *  3.0619096    1.0887532 *  3.1330848  
   8 H       5.6259537    2.3399932 *  3.7682744    1.0943196 *  3.1421422  
   9 H       4.5915663    2.3909116 *  3.0634345    1.0886701 *  3.8852771  
  10 H       4.5914256    2.3911865 *  3.0646921    3.8854564    1.0887099 *
  11 H       5.6252218    2.3394534 *  3.7682147    3.1414960    1.0943364 *
  12 H       4.5887451    2.3912459 *  3.0625687    3.1335625    1.0887001 *
  13 H       4.5895825    2.3910209 *  3.0630030    3.8854953    3.1327142  
  14 H       4.5917601    2.3913253 *  3.0641835    3.1326214    3.8855020  
  15 H       5.6256255    2.3394936 *  3.7682415    3.1432263    3.1418203  

                6 C          7 H          8 H          9 H         10 H     

   1 LA      4.5938082    4.5891074    5.6259537    4.5915663    4.5914256  
   2 P       1.7748464 *  2.3909047 *  2.3399932 *  2.3909116 *  2.3911865 *
   3 O       2.8340846 *  3.0619096    3.7682744    3.0634345    3.0646921  
   4 C       2.9440764 *  1.0887532 *  1.0943196 *  1.0886701 *  3.8854564  
   5 C       2.9438040 *  3.1330848    3.1421422    3.8852771    1.0887099 *
   6 C       0.0000000    3.8854584    3.1441187    3.1321746    3.1316387  
   7 H       3.8854584    0.0000000    1.7710790 *  1.7945214 *  4.1323459  
   8 H       3.1441187    1.7710790 *  0.0000000    1.7713330 *  4.1306308  
   9 H       3.1321746    1.7945214 *  1.7713330 *  0.0000000    4.7253888  
  10 H       3.1316387    4.1323459    4.1306308    4.7253888    0.0000000  
  11 H       3.1432412    3.4312574    2.9463043 *  4.1300134    1.7710548 *
  12 H       3.8854285    2.9323490 *  3.4321337    4.1325112    1.7946159 *
  13 H       1.0887641 *  4.7252629    4.1327458    4.1310360    2.9299456 *
  14 H       1.0887395 *  4.1312995    3.4330473    2.9301683 *  4.1312045  
  15 H       1.0942492 *  4.1320364    2.9500657 *  3.4317777    3.4293086  

               11 H         12 H         13 H         14 H         15 H     

   1 LA      5.6252218    4.5887451    4.5895825    4.5917601    5.6256255  
   2 P       2.3394534 *  2.3912459 *  2.3910209 *  2.3913253 *  2.3394936 *
   3 O       3.7682147    3.0625687    3.0630030    3.0641835    3.7682415  
   4 C       3.1414960    3.1335625    3.8854953    3.1326214    3.1432263  
   5 C       1.0943364 *  1.0887001 *  3.1327142    3.8855020    3.1418203  
   6 C       3.1432412    3.8854285    1.0887641 *  1.0887395 *  1.0942492 *
   7 H       3.4312574    2.9323490 *  4.7252629    4.1312995    4.1320364  
   8 H       2.9463043 *  3.4321337    4.1327458    3.4330473    2.9500657 *
   9 H       4.1300134    4.1325112    4.1310360    2.9301683 *  3.4317777  
  10 H       1.7710548 *  1.7946159 *  2.9299456 *  4.1312045    3.4293086  
  11 H       0.0000000    1.7712038 *  3.4333258    4.1315554    2.9478957 *
  12 H       1.7712038 *  0.0000000    4.1312229    4.7256993    4.1311060  
  13 H       3.4333258    4.1312229    0.0000000    1.7947578 *  1.7711354 *
  14 H       4.1315554    4.7256993    1.7947578 *  0.0000000    1.7711335 *
  15 H       2.9478957 *  4.1311060    1.7711354 *  1.7711335 *  0.0000000  

  * ... LESS THAN  3.000


     ATOMIC BASIS SET
     ----------------
 THE CONTRACTED PRIMITIVE FUNCTIONS HAVE BEEN UNNORMALIZED
 THE CONTRACTED BASIS FUNCTIONS ARE NOW NORMALIZED TO UNITY

  SHELL TYPE  PRIMITIVE        EXPONENT          CONTRACTION COEFFICIENT(S)

 LA        

      1   L       1             9.1730000   -0.054833023521   -0.009797991527
      1   L       2             3.1200000    0.676604290237    0.231261800020
      1   L       3             2.1040000   -1.034429443730   -0.601214480110
      1   L       4             1.3200000   -0.518907222591    0.195188831214
      1   L       5             0.4960000    1.631603699894    1.076136069429

      2   D       6             1.2380000   -0.053797021791
      2   D       7             0.6061000    0.380144153981
      2   D       8             0.2518000    0.720349291785

      3   D       9             0.0978700    1.000000000000

      4   L      10             0.6182000   -0.107095028128   -0.051868986063
      4   L      11             0.0454600    1.033448271434    1.008107729120

      5   L      12             0.0177500    1.000000000000    1.000000000000

      6   L      13             0.2004000    1.000000000000    1.000000000000

      7   D      14             0.0353600    1.000000000000

 P         

      8   S      15        312400.0000000    0.000057689641
      8   S      16         46800.0000000    0.000448246591
      8   S      17         10650.0000000    0.002349131061
      8   S      18          3018.0000000    0.009781571802
      8   S      19           986.8000000    0.034142936511
      8   S      20           357.4000000    0.100192955985
      8   S      21           139.6000000    0.234346168617
      8   S      22            57.6300000    0.382391849918
      8   S      23            24.6000000    0.318052941833
      8   S      24            10.1200000    0.070770999093
      8   S      25             4.2830000   -0.001817789630
      8   S      26             1.8050000    0.002161561737
      8   S      27             0.2782000    0.000432249354

      9   S      28        312400.0000000   -0.000016380204
      9   S      29         46800.0000000   -0.000127233535
      9   S      30         10650.0000000   -0.000668625166
      9   S      31          3018.0000000   -0.002795303744
      9   S      32           986.8000000   -0.009928227435
      9   S      33           357.4000000   -0.030244566456
      9   S      34           139.6000000   -0.077884705328
      9   S      35            57.6300000   -0.156724571545
      9   S      36            24.6000000   -0.198042753651
      9   S      37            10.1200000    0.037971251521
      9   S      38             4.2830000    0.552751544147
      9   S      39             1.8050000    0.542611452452
      9   S      40             0.2782000   -0.009675942874

     10   S      41        312400.0000000    0.000006865735
     10   S      42         46800.0000000    0.000053281983
     10   S      43         10650.0000000    0.000280421002
     10   S      44          3018.0000000    0.001170789768
     10   S      45           986.8000000    0.004173591138
     10   S      46           357.4000000    0.012720496749
     10   S      47           139.6000000    0.033152766352
     10   S      48            57.6300000    0.067671246836
     10   S      49            24.6000000    0.089831018862
     10   S      50            10.1200000   -0.020305232360
     10   S      51             4.2830000   -0.313280408979
     10   S      52             1.8050000   -0.563687905527
     10   S      53             0.2782000    1.117494073734

     11   S      54             0.6158000    1.000000000000

     12   S      55             0.1055000    1.000000000000

     13   P      56           504.9000000    0.002433660431
     13   P      57           119.4000000    0.019305559477
     13   P      58            37.9600000    0.088473106893
     13   P      59            13.9500000    0.254701981099
     13   P      60             5.4570000    0.440199242653
     13   P      61             2.1770000    0.383632006272
     13   P      62             0.2877000   -0.003946337074

     14   P      63           504.9000000   -0.000954298933
     14   P      64           119.4000000   -0.007664025747
     14   P      65            37.9600000   -0.035465925259
     14   P      66            13.9500000   -0.106164716437
     14   P      67             5.4570000   -0.187210586037
     14   P      68             2.1770000   -0.181495819791
     14   P      69             0.2877000    0.991672644618

     15   P      70             0.8010000    1.000000000000

     16   P      71             0.0971400    1.000000000000

     17   D      72             0.6480000    1.000000000000

     18   D      73             0.2180000    1.000000000000

     19   F      74             0.4520000    1.000000000000

     20   D      75             3.1200000    1.000000000000

 O         

     21   S      76         15330.0000000    0.000520198307
     21   S      77          2299.0000000    0.004023344781
     21   S      78           522.4000000    0.020729083329
     21   S      79           147.3000000    0.081082327080
     21   S      80            47.5500000    0.236226352118
     21   S      81            16.7600000    0.443518209420
     21   S      82             6.2070000    0.358670588689
     21   S      83             0.6882000   -0.008349797237

     22   S      84         15330.0000000   -0.000197236012
     22   S      85          2299.0000000   -0.001535010700
     22   S      86           522.4000000   -0.007951183914
     22   S      87           147.3000000   -0.032113452892
     22   S      88            47.5500000   -0.100269643049
     22   S      89            16.7600000   -0.234047111838
     22   S      90             6.2070000   -0.301410927756
     22   S      91             0.6882000    1.034919649508

     23   S      92             1.7520000    1.000000000000

     24   S      93             0.2384000    1.000000000000

     25   P      94            34.4600000    0.041163489568
     25   P      95             7.7490000    0.257762835858
     25   P      96             2.2800000    0.802419274427

     26   P      97             0.7156000    1.000000000000

     27   P      98             0.2140000    1.000000000000

     28   D      99             2.3140000    1.000000000000

     29   D     100             0.6450000    1.000000000000

     30   F     101             1.4280000    1.000000000000

 C         

     31   S     102          8236.0000000    0.000542430189
     31   S     103          1235.0000000    0.004196427901
     31   S     104           280.8000000    0.021540914108
     31   S     105            79.2700000    0.083614949614
     31   S     106            25.5900000    0.239871618922
     31   S     107             8.9970000    0.443751820060
     31   S     108             3.3190000    0.353579696469
     31   S     109             0.3643000   -0.009176366076

     32   S     110          8236.0000000   -0.000196392234
     32   S     111          1235.0000000   -0.001525950274
     32   S     112           280.8000000   -0.007890449028
     32   S     113            79.2700000   -0.031514870532
     32   S     114            25.5900000   -0.096910008320
     32   S     115             8.9970000   -0.220541526288
     32   S     116             3.3190000   -0.296069112937
     32   S     117             0.3643000    1.040503432950

     33   S     118             0.9059000    1.000000000000

     34   S     119             0.1285000    1.000000000000

     35   P     120            18.7100000    0.039426387165
     35   P     121             4.1330000    0.244088984924
     35   P     122             1.2000000    0.815492008943

     36   P     123             0.3827000    1.000000000000

     37   P     124             0.1209000    1.000000000000

     38   D     125             1.0970000    1.000000000000

     39   D     126             0.3180000    1.000000000000

     40   F     127             0.7610000    1.000000000000

 C         

     41   S     128          8236.0000000    0.000542430189
     41   S     129          1235.0000000    0.004196427901
     41   S     130           280.8000000    0.021540914108
     41   S     131            79.2700000    0.083614949614
     41   S     132            25.5900000    0.239871618922
     41   S     133             8.9970000    0.443751820060
     41   S     134             3.3190000    0.353579696469
     41   S     135             0.3643000   -0.009176366076

     42   S     136          8236.0000000   -0.000196392234
     42   S     137          1235.0000000   -0.001525950274
     42   S     138           280.8000000   -0.007890449028
     42   S     139            79.2700000   -0.031514870532
     42   S     140            25.5900000   -0.096910008320
     42   S     141             8.9970000   -0.220541526288
     42   S     142             3.3190000   -0.296069112937
     42   S     143             0.3643000    1.040503432950

     43   S     144             0.9059000    1.000000000000

     44   S     145             0.1285000    1.000000000000

     45   P     146            18.7100000    0.039426387165
     45   P     147             4.1330000    0.244088984924
     45   P     148             1.2000000    0.815492008943

     46   P     149             0.3827000    1.000000000000

     47   P     150             0.1209000    1.000000000000

     48   D     151             1.0970000    1.000000000000

     49   D     152             0.3180000    1.000000000000

     50   F     153             0.7610000    1.000000000000

 C         

     51   S     154          8236.0000000    0.000542430189
     51   S     155          1235.0000000    0.004196427901
     51   S     156           280.8000000    0.021540914108
     51   S     157            79.2700000    0.083614949614
     51   S     158            25.5900000    0.239871618922
     51   S     159             8.9970000    0.443751820060
     51   S     160             3.3190000    0.353579696469
     51   S     161             0.3643000   -0.009176366076

     52   S     162          8236.0000000   -0.000196392234
     52   S     163          1235.0000000   -0.001525950274
     52   S     164           280.8000000   -0.007890449028
     52   S     165            79.2700000   -0.031514870532
     52   S     166            25.5900000   -0.096910008320
     52   S     167             8.9970000   -0.220541526288
     52   S     168             3.3190000   -0.296069112937
     52   S     169             0.3643000    1.040503432950

     53   S     170             0.9059000    1.000000000000

     54   S     171             0.1285000    1.000000000000

     55   P     172            18.7100000    0.039426387165
     55   P     173             4.1330000    0.244088984924
     55   P     174             1.2000000    0.815492008943

     56   P     175             0.3827000    1.000000000000

     57   P     176             0.1209000    1.000000000000

     58   D     177             1.0970000    1.000000000000

     59   D     178             0.3180000    1.000000000000

     60   F     179             0.7610000    1.000000000000

 H         

     61   S     180            33.8700000    0.025494863235
     61   S     181             5.0950000    0.190362765893
     61   S     182             1.1590000    0.852162022245

     62   S     183             0.3258000    1.000000000000

     63   S     184             0.1027000    1.000000000000

     64   P     185             1.4070000    1.000000000000

     65   P     186             0.3880000    1.000000000000

     66   D     187             1.0570000    1.000000000000

 H         

     67   S     188            33.8700000    0.025494863235
     67   S     189             5.0950000    0.190362765893
     67   S     190             1.1590000    0.852162022245

     68   S     191             0.3258000    1.000000000000

     69   S     192             0.1027000    1.000000000000

     70   P     193             1.4070000    1.000000000000

     71   P     194             0.3880000    1.000000000000

     72   D     195             1.0570000    1.000000000000

 H         

     73   S     196            33.8700000    0.025494863235
     73   S     197             5.0950000    0.190362765893
     73   S     198             1.1590000    0.852162022245

     74   S     199             0.3258000    1.000000000000

     75   S     200             0.1027000    1.000000000000

     76   P     201             1.4070000    1.000000000000

     77   P     202             0.3880000    1.000000000000

     78   D     203             1.0570000    1.000000000000

 H         

     79   S     204            33.8700000    0.025494863235
     79   S     205             5.0950000    0.190362765893
     79   S     206             1.1590000    0.852162022245

     80   S     207             0.3258000    1.000000000000

     81   S     208             0.1027000    1.000000000000

     82   P     209             1.4070000    1.000000000000

     83   P     210             0.3880000    1.000000000000

     84   D     211             1.0570000    1.000000000000

 H         

     85   S     212            33.8700000    0.025494863235
     85   S     213             5.0950000    0.190362765893
     85   S     214             1.1590000    0.852162022245

     86   S     215             0.3258000    1.000000000000

     87   S     216             0.1027000    1.000000000000

     88   P     217             1.4070000    1.000000000000

     89   P     218             0.3880000    1.000000000000

     90   D     219             1.0570000    1.000000000000

 H         

     91   S     220            33.8700000    0.025494863235
     91   S     221             5.0950000    0.190362765893
     91   S     222             1.1590000    0.852162022245

     92   S     223             0.3258000    1.000000000000

     93   S     224             0.1027000    1.000000000000

     94   P     225             1.4070000    1.000000000000

     95   P     226             0.3880000    1.000000000000

     96   D     227             1.0570000    1.000000000000

 H         

     97   S     228            33.8700000    0.025494863235
     97   S     229             5.0950000    0.190362765893
     97   S     230             1.1590000    0.852162022245

     98   S     231             0.3258000    1.000000000000

     99   S     232             0.1027000    1.000000000000

    100   P     233             1.4070000    1.000000000000

    101   P     234             0.3880000    1.000000000000

    102   D     235             1.0570000    1.000000000000

 H         

    103   S     236            33.8700000    0.025494863235
    103   S     237             5.0950000    0.190362765893
    103   S     238             1.1590000    0.852162022245

    104   S     239             0.3258000    1.000000000000

    105   S     240             0.1027000    1.000000000000

    106   P     241             1.4070000    1.000000000000

    107   P     242             0.3880000    1.000000000000

    108   D     243             1.0570000    1.000000000000

 H         

    109   S     244            33.8700000    0.025494863235
    109   S     245             5.0950000    0.190362765893
    109   S     246             1.1590000    0.852162022245

    110   S     247             0.3258000    1.000000000000

    111   S     248             0.1027000    1.000000000000

    112   P     249             1.4070000    1.000000000000

    113   P     250             0.3880000    1.000000000000

    114   D     251             1.0570000    1.000000000000

 TOTAL NUMBER OF BASIS SET SHELLS             =  114
 NUMBER OF CARTESIAN GAUSSIAN BASIS FUNCTIONS =  354
 NOTE: THIS RUN WILL RESTRICT THE MO VARIATION SPACE TO SPHERICAL HARMONICS.
 THE NUMBER OF ORBITALS KEPT IN THE VARIATIONAL SPACE WILL BE PRINTED LATER.
 NUMBER OF ELECTRONS                          =  104
 CHARGE OF MOLECULE                           =    3
 SPIN MULTIPLICITY                            =    1
 NUMBER OF OCCUPIED ORBITALS (ALPHA)          =   52
 NUMBER OF OCCUPIED ORBITALS (BETA )          =   52
 TOTAL NUMBER OF ATOMS                        =   15
 THE NUCLEAR REPULSION ENERGY IS      669.3111908389
 NOTE THIS RUN IS USING CORE POTENTIALS, AND THE NUMBER OF ELECTRONS,
 OCCUPIED ORBITALS, AND NUCLEAR REPULSION ENERGY WILL BE ADJUSTED BELOW
 AFTER REMOVAL OF THE CORE CHARGES.

     $CONTRL OPTIONS
     ---------------
 SCFTYP=RHF          RUNTYP=OPTIMIZE     EXETYP=RUN     
 MPLEVL=       2     CITYP =NONE         CCTYP =NONE         VBTYP =NONE    
 DFTTYP=NONE         TDDFT =NONE    
 MULT  =       1     ICHARG=       3     NZVAR =      39     COORD =UNIQUE  
 PP    =READ         RELWFN=NONE         LOCAL =NONE         NUMGRD=       F
 ISPHER=       1     NOSYM =       0     MAXIT =     200     UNITS =ANGS    
 PLTORB=       F     MOLPLT=       F     AIMPAC=       F     FRIEND=        
 NPRINT=       7     IREST =       0     GEOM  =INPUT   
 NORMF =       0     NORMP =       0     ITOL  =      20     ICUT  =      11
 INTTYP=BEST         GRDTYP=BEST         QMTTOL= 1.0E-06

     $SYSTEM OPTIONS
     ---------------
  REPLICATED MEMORY=   300000000 WORDS (ON EVERY NODE).
 DISTRIBUTED MEMDDI=         300 MILLION WORDS IN AGGREGATE,
 MEMDDI DISTRIBUTED OVER  16 PROCESSORS IS    18750000 WORDS/PROCESSOR.
 TOTAL MEMORY REQUESTED ON EACH PROCESSOR=   318750000 WORDS.
 TIMLIM=      525600.00 MINUTES, OR     365.0 DAYS.
 PARALL= T  BALTYP=  DLB     KDIAG=    0  COREFL= F
 MXSEQ2=     300 MXSEQ3=     150  mem10=         0

          --------------
          ECP POTENTIALS
          --------------

 PARAMETERS FOR "LA-ECP  " ON ATOM    1 WITH ZCORE  46 AND LMAX  4 ARE
 FOR L= 4      COEFF    N           ZETA
    1       -2.85665    1        1.42345
 FOR L= 0      COEFF    N           ZETA
    1        8.85347    0       22.29739
    2      -68.41778    2        1.64320
    3      110.12463    2        1.85122
 FOR L= 1      COEFF    N           ZETA
    1        2.98675    0        1.77635
    2      -35.51815    2        3.98941
    3       53.65423    2        2.47524
 FOR L= 2      COEFF    N           ZETA
    1        1.67298    0        1.52169
    2       18.46625    2        1.52182
 FOR L= 3      COEFF    N           ZETA
    1       -4.64430    1        2.67762
    2      -14.43101    1       10.06608

 THE ECP RUN REMOVES   46 CORE ELECTRONS, AND THE SAME NUMBER OF PROTONS.
 NUMBER OF ELECTRONS KEPT IN THE CALCULATION IS =   58
 NUMBER OF OCCUPIED ORBITALS (ALPHA) KEPT IS    =   29
 NUMBER OF OCCUPIED ORBITALS (BETA ) KEPT IS    =   29
 THE ADJUSTED NUCLEAR REPULSION ENERGY=      334.5646995493
          ECP ANGULAR INTS.........     0.03 SECONDS

          ----------------
          PROPERTIES INPUT
          ----------------

     MOMENTS            FIELD           POTENTIAL          DENSITY
 IEMOM =       1   IEFLD =       0   IEPOT =       0   IEDEN =       0
 WHERE =COMASS     WHERE =NUCLEI     WHERE =NUCLEI     WHERE =NUCLEI  
 OUTPUT=BOTH       OUTPUT=BOTH       OUTPUT=BOTH       OUTPUT=BOTH    
 IEMINT=       0   IEFINT=       0                     IEDINT=       0
                                                       MORB  =       0
          EXTRAPOLATION IN EFFECT
          SOSCF IN EFFECT
 ORBITAL PRINTING OPTION: NPREO=     1   354     2     1

     -------------------------------
     INTEGRAL TRANSFORMATION OPTIONS
     -------------------------------
     NWORD  =            0
     CUTOFF = 1.0E-09     MPTRAN =       0
     DIRTRF =       T     AOINTS =DUP     

          ----------------------
          INTEGRAL INPUT OPTIONS
          ----------------------
 NOPK  =       1 NORDER=       0 SCHWRZ=       T

          -----------------------
          MP2 CONTROL INFORMATION
          -----------------------
          NACORE =       13  NBCORE =       13
          LMOMP2 =        F  AOINTS = DUP     
          METHOD =        2  NWORD  =               0
          MP2PRP =        F  OSPT   = NONE    
          CUTOFF = 1.00E-09  CPHFBS = BASISAO 
          CODE   = DDI     

          NUMBER OF CORE -A-  ORBITALS =    13
          NUMBER OF CORE -B-  ORBITALS =    13
          NUMBER OF OCC. -A-  ORBITALS =    29
          NUMBER OF OCC. -B-  ORBITALS =    29
          NUMBER OF MOLECULAR ORBITALS =   354
          NUMBER OF   BASIS  FUNCTIONS =   354

 
 
 -----------------------------------------------
  STATISTICS ON AUTOMATIC COORDINATE GENERATION 
 -----------------------------------------------
  NUMBER OF USER SPECIFIED BONDS                              0
  NUMBER OF BONDS                                            14
  NUMBER OF ANGLES                                           25
  NUMBER OF TORSIONS                                         30
  NUMBER OF EXTRA COORD.                                      0
  NUMBER OF EXTRA COORD. FOR CONSTRAINTS                      0
  NUMBER OF CONSTRAINED COORD.                                1
 
  TOTAL NUMBER OF PRIMITIVES                                 69
 -----------------------------------------------

   --- ENCODED Z MATRIX ---
 COORD  TYPE   I   J   K   L   M   N
    1      1    1   3
    2      1    2   4
    3      1    2   3
    4      1    2   6
    5      1    2   5
    6      1    4   8
    7      1    4   7
    8      1    4   9
    9      1    5  12
   10      1    5  11
   11      1    5  10
   12      1    6  15
   13      1    6  14
   14      1    6  13
   15      2    1   3   2
   16      2    2   5  11
   17      2    2   4   8
   18      2    2   6  13
   19      2    2   6  14
   20      2    2   4   9
   21      2    2   5  12
   22      2    2   5  10
   23      2    2   4   7
   24      2    2   6  15
   25      2    3   2   4
   26      2    3   2   5
   27      2    3   2   6
   28      2    4   2   6
   29      2    4   2   5
   30      2    5   2   6
   31      2    7   4   9
   32      2    7   4   8
   33      2    8   4   9
   34      2   10   5  11
   35      2   10   5  12
   36      2   11   5  12
   37      2   13   6  14
   38      2   13   6  15
   39      2   14   6  15
   40      3    1   3   2   5
   41      3    1   3   2   4
   42      3    1   3   2   6
   43      3    3   2   4   8
   44      3    3   2   6  15
   45      3    3   2   6  14
   46      3    3   2   4   7
   47      3    3   2   5  10
   48      3    3   2   6  13
   49      3    3   2   5  11
   50      3    3   2   5  12
   51      3    3   2   4   9
   52      3    4   2   6  15
   53      3    4   2   6  14
   54      3    4   2   5  10
   55      3    4   2   6  13
   56      3    4   2   5  12
   57      3    4   2   5  11
   58      3    5   2   6  15
   59      3    5   2   6  14
   60      3    5   2   4   7
   61      3    5   2   6  13
   62      3    5   2   4   9
   63      3    5   2   4   8
   64      3    6   2   4   7
   65      3    6   2   5  10
   66      3    6   2   5  11
   67      3    6   2   5  12
   68      3    6   2   4   9
   69      3    6   2   4   8

          INDEP./SYM. INTERNAL COORDINATES
          --------------------------------
 CRD  1=   1.0000 (  1)
 CRD  2=   0.1329 ( 20)  0.1264 ( 22) -0.1062 ( 23)  0.1251 ( 24)  0.1540 ( 25)
           0.2069 ( 26) -0.3610 ( 27)  0.2857 ( 28) -0.4985 ( 29)  0.2128 ( 30)
           0.1874 ( 40) -0.2063 ( 41) -0.1198 ( 46)  0.1148 ( 50)  0.1261 ( 52)
           0.1647 ( 53) -0.1421 ( 58) -0.1035 ( 59) -0.1695 ( 61) -0.1192 ( 65)
          -0.1546 ( 66)  0.1430 ( 69)
 CRD  3=  -0.2785 (  2)  0.2526 (  5)  0.4633 ( 15)  0.1902 ( 18) -0.1765 ( 19)
          -0.1526 ( 20)  0.1725 ( 22) -0.2925 ( 28)  0.3224 ( 30)  0.1390 ( 40)
           0.1035 ( 41) -0.2424 ( 42)  0.1810 ( 44)  0.1010 ( 45)  0.1014 ( 48)
          -0.1038 ( 49)  0.1215 ( 64)  0.1197 ( 65)  0.1244 ( 67)  0.1164 ( 68)
 CRD  4=  -0.1709 (  2)  0.4007 (  4) -0.2297 (  5)  0.1461 ( 18)  0.1716 ( 19)
          -0.2163 ( 21) -0.2060 ( 23) -0.1153 ( 25) -0.1548 ( 26)  0.2701 ( 27)
          -0.1216 ( 29) -0.1287 ( 37)  0.1342 ( 40) -0.1484 ( 41)  0.2393 ( 43)
           0.1981 ( 46) -0.1497 ( 47) -0.2171 ( 49) -0.1855 ( 50)  0.1715 ( 51)
           0.1481 ( 54)  0.1124 ( 56) -0.1235 ( 60) -0.1501 ( 62)  0.1105 ( 65)
          -0.1222 ( 68)
 CRD  5=  -0.3965 (  2) -0.3965 (  4) -0.3965 (  5) -0.2736 ( 16) -0.2736 ( 17)
          -0.2736 ( 24)  0.1192 ( 32)  0.1193 ( 33)  0.1192 ( 34)  0.1191 ( 36)
           0.1191 ( 38)  0.1192 ( 39) -0.1211 ( 54)  0.1211 ( 55) -0.1211 ( 59)
           0.1211 ( 62) -0.1211 ( 64)  0.1211 ( 67)
 CRD  6=  -0.2466 (  2) -0.3433 (  3) -0.2465 (  4) -0.2460 (  5)  0.2310 ( 16)
           0.2314 ( 17) -0.2133 ( 18) -0.2126 ( 19) -0.2127 ( 20) -0.2133 ( 21)
          -0.2121 ( 22) -0.2137 ( 23)  0.2310 ( 24)  0.1638 ( 31)  0.1636 ( 35)
           0.1637 ( 37)  0.1289 ( 54) -0.1289 ( 55)  0.1288 ( 59) -0.1288 ( 62)
           0.1288 ( 64) -0.1287 ( 67)
 CRD  7=   0.3378 (  2) -0.3107 (  5) -0.1097 ( 13)  0.1093 ( 14)  0.1084 ( 15)
          -0.2366 ( 16)  0.2558 ( 17)  0.3918 ( 18) -0.3990 ( 19) -0.1414 ( 20)
          -0.2500 ( 21)  0.1931 ( 22)  0.2048 ( 23) -0.1938 ( 32)  0.2007 ( 36)
          -0.1304 ( 38)  0.1511 ( 39)
 CRD  8=  -0.1383 (  2)  0.3134 (  4) -0.1754 (  5) -0.1979 ( 16) -0.1531 ( 17)
          -0.3505 ( 20)  0.3464 ( 21) -0.3185 ( 22)  0.3700 ( 23)  0.3527 ( 24)
           0.1895 ( 33)  0.1972 ( 34) -0.1534 ( 38) -0.1335 ( 39)
 CRD  9=  -0.1354 (  2)  0.1232 (  5) -0.3026 ( 15) -0.4070 ( 16)  0.4481 ( 17)
          -0.2501 ( 20)  0.2768 ( 21)  0.2173 ( 22) -0.2941 ( 23)  0.2246 ( 31)
          -0.2042 ( 35)
 CRD 10=  -0.3704 ( 18)  0.3708 ( 19) -0.3714 ( 20) -0.3697 ( 21)  0.3712 ( 22)
           0.3702 ( 23) -0.1316 ( 32)  0.1311 ( 33) -0.1307 ( 34)  0.1314 ( 36)
           0.1312 ( 38) -0.1311 ( 39)
 CRD 11=   0.1027 ( 11)  0.1415 ( 12) -0.2907 ( 16) -0.2162 ( 17) -0.2772 ( 18)
          -0.2396 ( 19)  0.3078 ( 20)  0.3272 ( 22)  0.5062 ( 24)  0.1012 ( 27)
           0.1196 ( 32) -0.1313 ( 35)  0.1273 ( 36)  0.2285 ( 37) -0.1084 ( 39)
 CRD 12=   0.7678 (  3)  0.1062 (  6)  0.1054 ( 10)  0.1058 ( 12)  0.2245 ( 16)
           0.2264 ( 17) -0.1099 ( 18) -0.1079 ( 19) -0.1087 ( 20) -0.1086 ( 21)
          -0.1088 ( 22) -0.1100 ( 23)  0.2253 ( 24)  0.1158 ( 31)  0.1152 ( 35)
           0.1154 ( 37)
 CRD 13=  -0.1896 (  2)  0.1719 (  5) -0.1212 (  6)  0.1104 ( 10) -0.4814 ( 15)
           0.2069 ( 16) -0.2271 ( 17)  0.2398 ( 18) -0.2411 ( 19) -0.1001 ( 20)
          -0.1411 ( 21)  0.1351 ( 22)  0.1060 ( 23) -0.1956 ( 25)  0.1778 ( 26)
           0.1288 ( 28) -0.1423 ( 30)  0.1610 ( 33) -0.1637 ( 34) -0.1048 ( 38)
          -0.1282 ( 52) -0.1485 ( 53)  0.1063 ( 54) -0.1464 ( 55)  0.1278 ( 56)
           0.1061 ( 57) -0.1215 ( 58) -0.1419 ( 59)  0.1118 ( 60) -0.1397 ( 61)
 CRD 14=  -0.2088 ( 43) -0.2088 ( 44) -0.1810 ( 45) -0.1811 ( 46) -0.1809 ( 47)
          -0.1811 ( 48) -0.2087 ( 49) -0.1809 ( 50) -0.1811 ( 51) -0.2088 ( 52)
          -0.1810 ( 53) -0.1810 ( 54) -0.1811 ( 55) -0.1810 ( 56) -0.2088 ( 57)
          -0.2088 ( 58) -0.1810 ( 59) -0.1810 ( 60) -0.1811 ( 61) -0.1810 ( 62)
          -0.2087 ( 63) -0.1811 ( 64) -0.1810 ( 65) -0.2088 ( 66) -0.1809 ( 67)
          -0.1811 ( 68) -0.2087 ( 69)
 CRD 15=   0.1185 (  7)  0.1449 (  9) -0.2032 ( 13) -0.1973 ( 14) -0.2647 ( 43)
          -0.2450 ( 46)  0.2421 ( 47)  0.2403 ( 49)  0.2183 ( 50) -0.2626 ( 51)
           0.1813 ( 54)  0.1575 ( 56)  0.1794 ( 57) -0.1801 ( 60) -0.1978 ( 62)
          -0.1998 ( 63) -0.1897 ( 64)  0.1941 ( 65)  0.1923 ( 66)  0.1703 ( 67)
          -0.2074 ( 68) -0.2094 ( 69)
 CRD 16=   0.3987 (  6)  0.3491 (  7)  0.3129 (  8) -0.3132 (  9) -0.3388 ( 10)
          -0.2522 ( 11)  0.1053 ( 16) -0.1235 ( 17) -0.1769 ( 20)  0.1128 ( 21)
           0.1627 ( 22) -0.1463 ( 23)  0.1851 ( 31)  0.1232 ( 32)  0.1408 ( 33)
          -0.1267 ( 34) -0.1578 ( 35)
 CRD 17=   0.1633 (  6)  0.1764 (  8)  0.1641 (  9)  0.2667 ( 10)  0.2520 ( 11)
          -0.4297 ( 12) -0.3257 ( 13) -0.3401 ( 14)  0.1618 ( 18)  0.1728 ( 19)
          -0.1354 ( 21)  0.1243 ( 24)  0.1212 ( 35)  0.1003 ( 36) -0.1949 ( 37)
          -0.1301 ( 38) -0.1363 ( 39)  0.1033 ( 60)  0.1075 ( 62)  0.1012 ( 63)
 CRD 18=  -0.1007 (  2) -0.1008 (  4) -0.1007 (  5) -0.2692 (  6) -0.3024 (  7)
          -0.3023 (  8) -0.3026 (  9) -0.2691 ( 10) -0.3024 ( 11) -0.2695 ( 12)
          -0.3028 ( 13) -0.3027 ( 14)  0.1121 ( 16)  0.1121 ( 17)  0.1014 ( 18)
           0.1015 ( 19)  0.1013 ( 20)  0.1013 ( 21)  0.1014 ( 22)  0.1013 ( 23)
           0.1122 ( 24) -0.1067 ( 31) -0.1049 ( 32) -0.1050 ( 33) -0.1049 ( 34)
          -0.1069 ( 35) -0.1049 ( 36) -0.1070 ( 37) -0.1049 ( 38) -0.1050 ( 39)
 CRD 19=  -0.1562 (  2)  0.1417 (  5) -0.1689 (  7) -0.2818 (  8)  0.1281 (  9)
           0.2805 ( 11) -0.1121 ( 13)  0.1543 ( 14) -0.2309 ( 15) -0.1061 ( 43)
           0.2484 ( 44)  0.2315 ( 45) -0.1356 ( 47)  0.2323 ( 48) -0.1424 ( 49)
          -0.1300 ( 50) -0.1022 ( 51)  0.2084 ( 52)  0.1915 ( 53)  0.1923 ( 55)
          -0.1028 ( 57)  0.2120 ( 58)  0.1951 ( 59)  0.1959 ( 61) -0.1315 ( 65)
          -0.1383 ( 66) -0.1259 ( 67) -0.1054 ( 68) -0.1093 ( 69)
 CRD 20=   0.1946 (  6) -0.2710 (  8)  0.2741 ( 10) -0.2910 ( 11) -0.4792 ( 12)
           0.2087 ( 13)  0.2483 ( 14)  0.1496 ( 32) -0.1394 ( 35)  0.1608 ( 36)
           0.2435 ( 37) -0.1145 ( 38) -0.1361 ( 39) -0.1331 ( 45)  0.1296 ( 48)
          -0.1391 ( 53)  0.1236 ( 55) -0.1264 ( 59)  0.1364 ( 61)
 CRD 21=  -0.4023 (  6)  0.2847 (  7) -0.3082 (  9)  0.3639 ( 10) -0.2758 ( 13)
           0.2358 ( 14)  0.2081 ( 31) -0.1592 ( 33)  0.1705 ( 34) -0.1881 ( 35)
           0.1441 ( 38) -0.1209 ( 39)  0.1238 ( 44) -0.1007 ( 46)  0.1108 ( 47)
           0.1184 ( 51)  0.1266 ( 52)  0.1057 ( 54)  0.1260 ( 58) -0.1059 ( 60)
           0.1131 ( 62)  0.1129 ( 65)  0.1216 ( 68)
 CRD 22=  -0.3847 (  6)  0.1856 (  7)  0.1662 (  8)  0.1604 (  9) -0.3812 ( 10)
           0.1878 ( 11) -0.3765 ( 12)  0.1812 ( 13)  0.1624 ( 14)  0.1956 ( 31)
          -0.1036 ( 33)  0.1937 ( 35) -0.1049 ( 36)  0.1914 ( 37) -0.1014 ( 38)
          -0.1015 ( 45) -0.1037 ( 46) -0.1022 ( 47)  0.1049 ( 48)  0.1067 ( 50)
           0.1073 ( 51) -0.1174 ( 54)  0.1202 ( 55) -0.1168 ( 59)  0.1224 ( 62)
          -0.1188 ( 64)  0.1220 ( 67)
 CRD 23=  -0.3133 (  7)  0.3284 (  8)  0.3222 (  9) -0.3126 ( 11) -0.3145 ( 13)
           0.3255 ( 14) -0.1765 ( 32)  0.1679 ( 33) -0.1730 ( 34)  0.1677 ( 36)
           0.1686 ( 38) -0.1747 ( 39)  0.1256 ( 43)  0.1255 ( 44)  0.1242 ( 49)
           0.1262 ( 52)  0.1237 ( 57)  0.1250 ( 58)  0.1260 ( 63)  0.1247 ( 66)
           0.1250 ( 69)
 CRD 24=  -0.4022 (  7)  0.3131 (  8) -0.3861 (  9)  0.1249 ( 10)  0.2611 ( 11)
          -0.2115 ( 12)  0.1437 ( 13) -0.1744 ( 32)  0.2284 ( 33)  0.2202 ( 34)
          -0.1439 ( 36)  0.1228 ( 37)  0.1151 ( 43)  0.1297 ( 47) -0.1045 ( 49)
          -0.1279 ( 51)  0.1440 ( 54) -0.1426 ( 62)  0.1004 ( 63)  0.1377 ( 65)
          -0.1381 ( 68)  0.1049 ( 69)
 CRD 25=   0.2524 (  6) -0.2307 (  8) -0.1184 (  9) -0.2260 ( 10)  0.2767 ( 11)
          -0.3321 ( 13)  0.3513 ( 14) -0.1537 ( 31)  0.1583 ( 32)  0.1377 ( 35)
          -0.1855 ( 36)  0.2066 ( 38) -0.2210 ( 39) -0.1403 ( 45)  0.1337 ( 46)
          -0.1242 ( 48)  0.1467 ( 50) -0.1560 ( 53) -0.1399 ( 55)  0.1480 ( 56)
          -0.1577 ( 59)  0.1314 ( 60) -0.1416 ( 61)  0.1498 ( 64)  0.1645 ( 67)
 CRD 26=  -0.1009 (  2)  0.2364 (  4) -0.1355 (  5) -0.2386 (  7) -0.2616 (  9)
           0.1286 ( 12)  0.2563 ( 13)  0.2313 ( 14)  0.1683 ( 18)  0.1900 ( 19)
          -0.2087 ( 21) -0.1934 ( 23)  0.1131 ( 24) -0.1314 ( 27) -0.1052 ( 28)
           0.1835 ( 29)  0.1602 ( 32)  0.1303 ( 35)  0.1680 ( 36) -0.2277 ( 37)
          -0.1125 ( 38) -0.1325 ( 39) -0.1341 ( 40)  0.1484 ( 41) -0.1620 ( 43)
          -0.1041 ( 46)  0.1471 ( 49) -0.1344 ( 54) -0.1138 ( 56)  0.1191 ( 60)
           0.1344 ( 62)
 CRD 27=   0.4667 (  3) -0.2684 (  6) -0.2679 ( 10) -0.2681 ( 12) -0.1524 ( 16)
          -0.1528 ( 17) -0.1526 ( 24)  0.1599 ( 32)  0.1605 ( 33)  0.1599 ( 34)
           0.1596 ( 36)  0.1597 ( 38)  0.1603 ( 39) -0.1010 ( 52)  0.1758 ( 54)
          -0.1756 ( 55)  0.1008 ( 57)  0.1008 ( 58)  0.1759 ( 59) -0.1758 ( 62)
          -0.1007 ( 63)  0.1756 ( 64) -0.1011 ( 66) -0.1758 ( 67)  0.1010 ( 69)
 CRD 28=   0.1303 (  6)  0.1619 (  7)  0.2580 (  8) -0.1261 (  9) -0.1188 ( 10)
          -0.2551 ( 11) -0.1321 ( 14) -0.2299 ( 15) -0.1451 ( 16)  0.1595 ( 17)
           0.2147 ( 20) -0.1373 ( 21) -0.2060 ( 22)  0.1634 ( 23) -0.1667 ( 25)
           0.1511 ( 26) -0.2269 ( 31) -0.1190 ( 32) -0.1938 ( 33)  0.1923 ( 34)
           0.2058 ( 35)  0.1024 ( 38) -0.1219 ( 42) -0.1098 ( 43)  0.2573 ( 44)
           0.1840 ( 45) -0.1152 ( 47)  0.1856 ( 48) -0.1474 ( 49)
 CRD 29=   0.3201 (  2) -0.1840 (  3)  0.3202 (  4)  0.3197 (  5) -0.1796 (  7)
          -0.1793 (  8) -0.1796 (  9) -0.1792 ( 11) -0.1794 ( 13) -0.1796 ( 14)
          -0.1222 ( 16) -0.1223 ( 17) -0.1570 ( 18) -0.1569 ( 19) -0.1569 ( 20)
          -0.1568 ( 21) -0.1568 ( 22) -0.1569 ( 23) -0.1223 ( 24)  0.2242 ( 31)
           0.1057 ( 32)  0.1055 ( 33)  0.1052 ( 34)  0.2241 ( 35)  0.1055 ( 36)
           0.2242 ( 37)  0.1056 ( 38)  0.1055 ( 39)
 CRD 30=   0.2354 (  2) -0.5514 (  4)  0.3163 (  5) -0.1633 (  8) -0.1105 ( 10)
          -0.1752 ( 11)  0.1930 ( 12)  0.1356 ( 13)  0.1543 ( 14) -0.1053 ( 16)
           0.1809 ( 18)  0.1773 ( 19) -0.1203 ( 22)  0.1835 ( 24)  0.1600 ( 33)
           0.1812 ( 34) -0.1603 ( 37) -0.2006 ( 38) -0.1863 ( 39)  0.1035 ( 43)
 CRD 31=   0.1876 (  3)  0.1767 (  6)  0.1765 ( 10)  0.1766 ( 12) -0.1279 ( 16)
          -0.1278 ( 17) -0.1278 ( 24) -0.1000 ( 25) -0.1000 ( 26)  0.1360 ( 31)
           0.1359 ( 35)  0.1359 ( 37) -0.1285 ( 45) -0.1280 ( 46) -0.1283 ( 47)
           0.1279 ( 48)  0.1281 ( 50)  0.1285 ( 51) -0.1325 ( 52) -0.2612 ( 53)
           0.2610 ( 56)  0.1332 ( 57)  0.1331 ( 58) -0.2609 ( 60)  0.2609 ( 61)
          -0.1332 ( 63) -0.2613 ( 65) -0.1326 ( 66)  0.2612 ( 68)  0.1324 ( 69)
 CRD 32=   0.4603 (  2) -0.4176 (  5) -0.1573 (  6) -0.1532 (  7)  0.1741 (  9)
           0.1426 ( 10)  0.1954 ( 13) -0.1816 ( 14) -0.1310 ( 15)  0.1034 ( 16)
          -0.1141 ( 17) -0.1132 ( 20)  0.1081 ( 21)  0.1018 ( 22) -0.1179 ( 23)
          -0.1021 ( 25)  0.1996 ( 32) -0.2079 ( 36)  0.1309 ( 38) -0.1566 ( 39)
          -0.1034 ( 43)  0.2425 ( 44) -0.1390 ( 49)  0.1047 ( 52)  0.1029 ( 58)
 CRD 33=   0.2306 (  7) -0.2309 (  8) -0.2311 (  9)  0.2314 ( 11)  0.2312 ( 13)
          -0.2308 ( 14) -0.1772 ( 32)  0.1769 ( 33) -0.1772 ( 34)  0.1775 ( 36)
           0.1774 ( 38) -0.1771 ( 39)  0.1514 ( 43)  0.1515 ( 44) -0.1131 ( 45)
          -0.1134 ( 46) -0.1132 ( 47) -0.1136 ( 48)  0.1516 ( 49) -0.1137 ( 50)
          -0.1130 ( 51)  0.1516 ( 52) -0.1130 ( 53) -0.1131 ( 54) -0.1135 ( 55)
          -0.1136 ( 56)  0.1517 ( 57)  0.1515 ( 58) -0.1131 ( 59) -0.1135 ( 60)
          -0.1136 ( 61) -0.1131 ( 62)  0.1513 ( 63) -0.1135 ( 64) -0.1131 ( 65)
           0.1517 ( 66) -0.1136 ( 67) -0.1131 ( 68)  0.1513 ( 69)
 CRD 34=   0.1338 (  6)  0.1052 (  7) -0.2236 (  8)  0.1605 ( 10) -0.2238 ( 11)
          -0.2936 ( 12)  0.1182 ( 13)  0.1412 ( 14)  0.1047 ( 20)  0.1045 ( 22)
           0.1008 ( 24)  0.1348 ( 29) -0.1815 ( 32)  0.1154 ( 35) -0.1840 ( 36)
          -0.2111 ( 37)  0.1147 ( 38)  0.1323 ( 39)  0.1835 ( 45) -0.1754 ( 46)
          -0.1710 ( 48)  0.1853 ( 50)  0.1472 ( 53) -0.2073 ( 55)  0.1684 ( 56)
          -0.1087 ( 57)  0.2197 ( 59) -0.1621 ( 60) -0.1347 ( 61)  0.1124 ( 63)
          -0.1946 ( 64)  0.2083 ( 67)
 CRD 35=  -0.2872 (  6)  0.1941 (  7) -0.1977 (  9)  0.2688 ( 10) -0.1521 ( 13)
           0.1353 ( 14)  0.1001 ( 17) -0.1003 ( 28)  0.1065 ( 30) -0.2078 ( 31)
           0.1708 ( 33) -0.1722 ( 34)  0.1943 ( 35) -0.1176 ( 38)  0.1019 ( 39)
           0.1301 ( 46) -0.2151 ( 47)  0.1073 ( 48)  0.1103 ( 50) -0.2175 ( 51)
          -0.2480 ( 54)  0.1195 ( 55)  0.1163 ( 61) -0.2508 ( 62)  0.1542 ( 64)
          -0.1942 ( 65)  0.1312 ( 67) -0.1934 ( 68)
 CRD 36=   0.1617 (  4)  0.2430 (  7) -0.1505 (  8)  0.2403 (  9) -0.1053 ( 10)
          -0.1166 ( 11)  0.1849 ( 12) -0.1262 ( 13)  0.1051 ( 20) -0.1179 ( 21)
          -0.1251 ( 23) -0.1074 ( 24)  0.1320 ( 29) -0.1220 ( 32)  0.1748 ( 33)
           0.1700 ( 34)  0.1689 ( 37)  0.1041 ( 41)  0.1163 ( 43) -0.1147 ( 45)
           0.1855 ( 47)  0.1371 ( 48) -0.1052 ( 49) -0.1789 ( 51) -0.1627 ( 53)
          -0.1023 ( 56) -0.2496 ( 57)  0.1602 ( 61)  0.2679 ( 63) -0.2090 ( 66)
           0.2376 ( 69)
 CRD 37=   0.2305 (  2) -0.2094 (  5)  0.1113 (  6) -0.1654 (  8) -0.1011 ( 10)
           0.1868 ( 11) -0.1927 ( 13)  0.2070 ( 14) -0.1435 ( 18)  0.1423 ( 19)
          -0.1192 ( 25)  0.1080 ( 26) -0.1370 ( 28)  0.1511 ( 30)  0.1217 ( 31)
          -0.1105 ( 35)  0.1123 ( 36) -0.1482 ( 38)  0.1530 ( 39) -0.1515 ( 42)
           0.2089 ( 45) -0.1706 ( 46)  0.1939 ( 48) -0.1921 ( 50) -0.2688 ( 52)
          -0.1060 ( 56)  0.1189 ( 57) -0.2761 ( 58) -0.1196 ( 60)  0.1212 ( 65)
           0.1925 ( 66)  0.1310 ( 68)  0.1573 ( 69)
 CRD 38=  -0.5626 ( 15)  0.3208 ( 25) -0.2910 ( 26) -0.3013 ( 28)  0.3324 ( 30)
          -0.1403 ( 42) -0.1111 ( 44) -0.1462 ( 45)  0.1117 ( 47) -0.1516 ( 48)
          -0.1356 ( 56) -0.1311 ( 57) -0.1397 ( 60) -0.1268 ( 63)
 CRD 39=   0.5775 ( 40)  0.5772 ( 41)  0.5774 ( 42)

 THE DETERMINANT OF THE G MATRIX IS 10**(   -13)


                     --------------------
                     INTERNAL COORDINATES
                     --------------------

                 - - ATOMS - -         COORDINATE      COORDINATE
 NO.   TYPE    I  J  K  L  M  N        (BOHR,RAD)       (ANG,DEG)
 ----------------------------------------------------------------
   1 STRETCH   1  3                     3.7794520       2.0000000
   2 STRETCH   2  4                     3.3538460       1.7747790
   3 STRETCH   2  3                     3.3196218       1.7566683
   4 STRETCH   2  6                     3.3539733       1.7748464
   5 STRETCH   2  5                     3.3538992       1.7748072
   6 STRETCH   4  8                     2.0679643       1.0943196
   7 STRETCH   4  7                     2.0574453       1.0887532
   8 STRETCH   4  9                     2.0572881       1.0886701
   9 STRETCH   5 12                     2.0573449       1.0887001
  10 STRETCH   5 11                     2.0679960       1.0943364
  11 STRETCH   5 10                     2.0573635       1.0887099
  12 STRETCH   6 15                     2.0678311       1.0942492
  13 STRETCH   6 14                     2.0574193       1.0887395
  14 STRETCH   6 13                     2.0574658       1.0887641
  15 BEND      1  3  2                  3.1407285     179.9504864
  16 BEND      2  5 11                  1.8647629     106.8430437
  17 BEND      2  4  8                  1.8654887     106.8846315
  18 BEND      2  6 13                  1.9363405     110.9441357
  19 BEND      2  6 14                  1.9367673     110.9685932
  20 BEND      2  4  9                  1.9363663     110.9456164
  21 BEND      2  5 12                  1.9367468     110.9674169
  22 BEND      2  5 10                  1.9366586     110.9623649
  23 BEND      2  4  7                  1.9362777     110.9405404
  24 BEND      2  6 15                  1.8648449     106.8477426
  25 BEND      3  2  4                  1.8625915     106.7186329
  26 BEND      3  2  5                  1.8629232     106.7376352
  27 BEND      3  2  6                  1.8629692     106.7402727
  28 BEND      4  2  6                  1.9560829     112.0752918
  29 BEND      4  2  5                  1.9558860     112.0640120
  30 BEND      5  2  6                  1.9557846     112.0582053
  31 BEND      7  4  9                  1.9373963     111.0046285
  32 BEND      7  4  8                  1.8926647     108.4417006
  33 BEND      8  4  9                  1.8931684     108.4705596
  34 BEND     10  5 11                  1.8926604     108.4414529
  35 BEND     10  5 12                  1.9375674     111.0144323
  36 BEND     11  5 12                  1.8929064     108.4555452
  37 BEND     13  6 14                  1.9376724     111.0204481
  38 BEND     13  6 15                  1.8928290     108.4511126
  39 BEND     14  6 15                  1.8928573     108.4527372
  40 TORSION   1  3  2  5               0.6078242      34.8257609
  41 TORSION   1  3  2  4               2.7021086     154.8194186
  42 TORSION   1  3  2  6              -1.4865386     -85.1723901
  43 TORSION   3  2  4  8              -3.1397635    -179.8951976
  44 TORSION   3  2  6 15               3.1406228     179.9444323
  45 TORSION   3  2  6 14              -1.0822197     -62.0066193
  46 TORSION   3  2  4  7              -1.0795371     -61.8529181
  47 TORSION   3  2  5 10              -1.0836507     -62.0886112
  48 TORSION   3  2  6 13               1.0805476      61.9108182
  49 TORSION   3  2  5 11               3.1395369     179.8822159
  50 TORSION   3  2  5 12               1.0791952      61.8333328
  51 TORSION   3  2  4  9               1.0825410      62.0250294
  52 TORSION   4  2  6 15              -1.1093065     -63.5585802
  53 TORSION   4  2  6 14               0.9510363      54.4903681
  54 TORSION   4  2  5 10              -3.1167730    -178.5779384
  55 TORSION   4  2  6 13               3.1138036     178.4078057
  56 TORSION   4  2  5 12              -0.9539271     -54.6559945
  57 TORSION   4  2  5 11               1.1064146      63.3928887
  58 TORSION   5  2  6 15               1.1071274      63.4337280
  59 TORSION   5  2  6 14              -3.1157151    -178.5173236
  60 TORSION   5  2  4  7               0.9537852      54.6478664
  61 TORSION   5  2  6 13              -0.9529478     -54.5998861
  62 TORSION   5  2  4  9               3.1158633     178.5258139
  63 TORSION   5  2  4  8              -1.1064412     -63.3944130
  64 TORSION   6  2  4  7              -3.1130207    -178.3629494
  65 TORSION   6  2  5 10               0.9498725      54.4236833
  66 TORSION   6  2  5 11              -1.1101252     -63.6054896
  67 TORSION   6  2  5 12               3.1127184     178.3456273
  68 TORSION   6  2  4  9              -0.9509427     -54.4850018
  69 TORSION   6  2  4  8               1.1099381      63.5947712

     ------------------------------------------
     THE POINT GROUP IS C1 , NAXIS= 0, ORDER= 1
     ------------------------------------------

 -- VARIATIONAL SPACE WILL BE RESTRICTED TO PURE SPHERICAL HARMONICS ONLY --
 AFTER EXCLUDING CONTAMINANT COMBINATIONS FROM THE CARTESIAN GAUSSIAN BASIS
 SET, THE NUMBER OF SPHERICAL HARMONICS KEPT IN THE VARIATION SPACE IS  316

     DIMENSIONS OF THE SYMMETRY SUBSPACES ARE
 A   =  316

 ..... DONE SETTING UP THE RUN .....
 CPU     0: STEP CPU TIME=     0.09 TOTAL CPU TIME=        0.1 (    0.0 MIN)
 TOTAL WALL CLOCK TIME=        0.2 SECONDS, CPU UTILIZATION IS  60.00%


          -----------------------------
          STATIONARY POINT LOCATION RUN
          -----------------------------


           ** GEOMETRY CONSTRAINTS ARE BEING APPLIED. **

          TRANSFORMING DISPLACEMENT FROM INTERNALS TO CARTESIANS
          THE ROOT MEAN SQUARE ERROR IN ITERATION   1 IS   0.00000000
 WARNING! THE RADIUS IN CARTESIANS IS    0.00000
 OBTAINING INITIAL HESSIAN, HESS=GUESS   
 DIAGONAL GUESS HESSIAN IN INTERNAL COORDS IS
     1  0.7111     2  0.4333     3  0.3624     4  0.4333     5  0.4333
     6  0.3435     7  0.3472     8  0.3473     9  0.3472    10  0.3435
    11  0.3472    12  0.3435    13  0.3472    14  0.3472    15  0.3223
    16  0.2409    17  0.2409    18  0.2412    19  0.2412    20  0.2412
    21  0.2412    22  0.2412    23  0.2412    24  0.2409    25  0.2785
    26  0.2785    27  0.2785    28  0.2914    29  0.2914    30  0.2914
    31  0.2035    32  0.2032    33  0.2033    34  0.2032    35  0.2035
    36  0.2032    37  0.2035    38  0.2032    39  0.2033    40  0.2500
    41  0.2500    42  0.2500    43  0.2500    44  0.2500    45  0.2500
    46  0.2500    47  0.2500    48  0.2500    49  0.2500    50  0.2500
    51  0.2500    52  0.2500    53  0.2500    54  0.2500    55  0.2500
    56  0.2500    57  0.2500    58  0.2500    59  0.2500    60  0.2500
    61  0.2500    62  0.2500    63  0.2500    64  0.2500    65  0.2500
    66  0.2500    67  0.2500    68  0.2500    69  0.2500
 TRANSFORMING HESSIAN TO SYMMETRY COORDINATES

          PARAMETERS CONTROLLING GEOMETRY SEARCH ARE
          METHOD =QA                  UPHESS =BFGS    
          NNEG   =         0          NFRZ   =         0
          NSTEP  =        50          IFOLOW =         1
          HESS   =GUESS               RESTAR =         F
          IHREP  =         0          HSSEND =         F
          NPRT   =         0          NPUN   =         0
          OPTTOL = 1.000E-04          RMIN   = 1.500E-03
          RMAX   = 1.000E-01          RLIM   = 7.000E-02
          DXMAX  = 3.000E-01          PURIFY =         F
          MOVIE  =         F          TRUPD  =         T
          TRMAX  = 5.000E-01          TRMIN  = 5.000E-02
          ITBMAT =         5          STPT   =         F
          STSTEP = 1.000E-02          PROJCT=          T

 BEGINNING GEOMETRY SEARCH POINT NSERCH=   0 ...

 COORDINATES OF ALL ATOMS ARE (ANGS)
   ATOM   CHARGE       X              Y              Z
 ------------------------------------------------------------
 LA         57.0  -0.1739353441   1.1341682690  -4.0490164368
 P          15.0  -0.0434686586   0.3125976375  -0.3856089325
 O           8.0  -0.1052811816   0.6968385574  -2.0986243405
 C           6.0  -1.4929605547   1.0250534013   0.3500679429
 C           6.0   1.4490582972   1.0353422708   0.2468022551
 C           6.0  -0.0325386792  -1.4576824104  -0.2588461793
 H           1.0  -1.4947092215   2.1078864723   0.2366965449
 H           1.0  -1.4562279584   0.7888506237   1.4179604668
 H           1.0  -2.3973551435   0.5873482673  -0.0690825721
 H           1.0   2.3251267858   0.6033751686  -0.2340280267
 H           1.0   1.4882440965   0.7987803997   1.3145452790
 H           1.0   1.4358211560   2.1180959456   0.1339432524
 H           1.0   0.8496518205  -1.8768737556  -0.7399134848
 H           1.0  -0.9439201809  -1.8837288984  -0.6750453840
 H           1.0   0.0069715095  -1.6990292349   0.8077239746


                     --------------------
                     INTERNAL COORDINATES
                     --------------------

                 - - ATOMS - -         COORDINATE      COORDINATE
 NO.   TYPE    I  J  K  L  M  N        (BOHR,RAD)       (ANG,DEG)
 ----------------------------------------------------------------
   1 STRETCH   1  3                     3.7794520       2.0000000
   2 STRETCH   2  4                     3.3538460       1.7747790
   3 STRETCH   2  3                     3.3196218       1.7566683
   4 STRETCH   2  6                     3.3539733       1.7748464
   5 STRETCH   2  5                     3.3538992       1.7748072
   6 STRETCH   4  8                     2.0679643       1.0943196
   7 STRETCH   4  7                     2.0574453       1.0887532
   8 STRETCH   4  9                     2.0572881       1.0886701
   9 STRETCH   5 12                     2.0573449       1.0887001
  10 STRETCH   5 11                     2.0679960       1.0943364
  11 STRETCH   5 10                     2.0573635       1.0887099
  12 STRETCH   6 15                     2.0678311       1.0942492
  13 STRETCH   6 14                     2.0574193       1.0887395
  14 STRETCH   6 13                     2.0574658       1.0887641
  15 BEND      1  3  2                  3.1407285     179.9504864
  16 BEND      2  5 11                  1.8647629     106.8430437
  17 BEND      2  4  8                  1.8654887     106.8846315
  18 BEND      2  6 13                  1.9363405     110.9441357
  19 BEND      2  6 14                  1.9367673     110.9685932
  20 BEND      2  4  9                  1.9363663     110.9456164
  21 BEND      2  5 12                  1.9367468     110.9674169
  22 BEND      2  5 10                  1.9366586     110.9623649
  23 BEND      2  4  7                  1.9362777     110.9405404
  24 BEND      2  6 15                  1.8648449     106.8477426
  25 BEND      3  2  4                  1.8625915     106.7186329
  26 BEND      3  2  5                  1.8629232     106.7376352
  27 BEND      3  2  6                  1.8629692     106.7402727
  28 BEND      4  2  6                  1.9560829     112.0752918
  29 BEND      4  2  5                  1.9558860     112.0640120
  30 BEND      5  2  6                  1.9557846     112.0582053
  31 BEND      7  4  9                  1.9373963     111.0046285
  32 BEND      7  4  8                  1.8926647     108.4417006
  33 BEND      8  4  9                  1.8931684     108.4705596
  34 BEND     10  5 11                  1.8926604     108.4414529
  35 BEND     10  5 12                  1.9375674     111.0144323
  36 BEND     11  5 12                  1.8929064     108.4555452
  37 BEND     13  6 14                  1.9376724     111.0204481
  38 BEND     13  6 15                  1.8928290     108.4511126
  39 BEND     14  6 15                  1.8928573     108.4527372
  40 TORSION   1  3  2  5               0.6078242      34.8257609
  41 TORSION   1  3  2  4               2.7021086     154.8194186
  42 TORSION   1  3  2  6              -1.4865386     -85.1723901
  43 TORSION   3  2  4  8              -3.1397635    -179.8951976
  44 TORSION   3  2  6 15               3.1406228     179.9444323
  45 TORSION   3  2  6 14              -1.0822197     -62.0066193
  46 TORSION   3  2  4  7              -1.0795371     -61.8529181
  47 TORSION   3  2  5 10              -1.0836507     -62.0886112
  48 TORSION   3  2  6 13               1.0805476      61.9108182
  49 TORSION   3  2  5 11               3.1395369     179.8822159
  50 TORSION   3  2  5 12               1.0791952      61.8333328
  51 TORSION   3  2  4  9               1.0825410      62.0250294
  52 TORSION   4  2  6 15              -1.1093065     -63.5585802
  53 TORSION   4  2  6 14               0.9510363      54.4903681
  54 TORSION   4  2  5 10              -3.1167730    -178.5779384
  55 TORSION   4  2  6 13               3.1138036     178.4078057
  56 TORSION   4  2  5 12              -0.9539271     -54.6559945
  57 TORSION   4  2  5 11               1.1064146      63.3928887
  58 TORSION   5  2  6 15               1.1071274      63.4337280
  59 TORSION   5  2  6 14              -3.1157151    -178.5173236
  60 TORSION   5  2  4  7               0.9537852      54.6478664
  61 TORSION   5  2  6 13              -0.9529478     -54.5998861
  62 TORSION   5  2  4  9               3.1158633     178.5258139
  63 TORSION   5  2  4  8              -1.1064412     -63.3944130
  64 TORSION   6  2  4  7              -3.1130207    -178.3629494
  65 TORSION   6  2  5 10               0.9498725      54.4236833
  66 TORSION   6  2  5 11              -1.1101252     -63.6054896
  67 TORSION   6  2  5 12               3.1127184     178.3456273
  68 TORSION   6  2  4  9              -0.9509427     -54.4850018
  69 TORSION   6  2  4  8               1.1099381      63.5947712

          ********************
          1 ELECTRON INTEGRALS
          ********************
 TIME TO DO ORDINARY INTEGRALS=      0.01
 TIME TO DO      ECP INTEGRALS=      0.06
 ...... END OF ONE-ELECTRON INTEGRALS ......
 CPU     0: STEP CPU TIME=     0.07 TOTAL CPU TIME=        0.2 (    0.0 MIN)
 TOTAL WALL CLOCK TIME=        0.3 SECONDS, CPU UTILIZATION IS  59.26%

          -------------
          GUESS OPTIONS
          -------------
          GUESS =HUCKEL            NORB  =       0          NORDER=       0
          MIX   =       F          PRTMO =       F          PUNMO =       F
          TOLZ  = 1.0E-08          TOLE  = 1.0E-05
          SYMDEN=       F          PURIFY=       F

 INITIAL GUESS ORBITALS GENERATED BY HUCKEL   ROUTINE.
 HUCKEL GUESS REQUIRES    916545 WORDS.

 STATISTICS FOR GENERATION OF SYMMETRY ORBITAL -Q- MATRIX
 NUMBER OF CARTESIAN ATOMIC ORBITALS=        354
 NUMBER OF SPHERICAL CONTAMINANTS DROPPED=    38
 NUMBER OF LINEARLY DEPENDENT MOS DROPPED=     0
 TOTAL NUMBER OF MOS IN VARIATION SPACE=     316

 SYMMETRIES FOR INITIAL GUESS ORBITALS FOLLOW.   BOTH SET(S).
    29 ORBITALS ARE OCCUPIED (   13 CORE ORBITALS).
    14=A       15=A       16=A       17=A       18=A       19=A       20=A   
    21=A       22=A       23=A       24=A       25=A       26=A       27=A   
    28=A       29=A       30=A       31=A       32=A       33=A       34=A   
    35=A       36=A       37=A       38=A       39=A   
 ...... END OF INITIAL ORBITAL SELECTION ......
 CPU     0: STEP CPU TIME=     0.21 TOTAL CPU TIME=        0.4 (    0.0 MIN)
 TOTAL WALL CLOCK TIME=        0.8 SECONDS, CPU UTILIZATION IS  48.68%

                    ----------------------
                    AO INTEGRAL TECHNOLOGY
                    ----------------------
     S,P,L SHELL ROTATED AXIS INTEGRALS, REPROGRAMMED BY
        KAZUYA ISHIMURA (IMS) AND JOSE SIERRA (SYNSTAR).
     S,P,D,L SHELL ROTATED AXIS INTEGRALS PROGRAMMED BY
        KAZUYA ISHIMURA (INSTITUTE FOR MOLECULAR SCIENCE).
     S,P,D,F,G SHELL TO TOTAL QUARTET ANGULAR MOMENTUM SUM 5,
        ERIC PROGRAM BY GRAHAM FLETCHER (ELORET AND NASA ADVANCED
        SUPERCOMPUTING DIVISION, AMES RESEARCH CENTER).
     S,P,D,F,G,L SHELL GENERAL RYS QUADRATURE PROGRAMMED BY
        MICHEL DUPUIS (PACIFIC NORTHWEST NATIONAL LABORATORY).

          --------------------
          2 ELECTRON INTEGRALS
          --------------------

 DIRECT SCF METHOD SKIPS INTEGRAL STORAGE ON DISK.
 DIRECT TRANSFORMATION SKIPS AO INTEGRAL STORAGE ON DISK.
  ...... END OF TWO-ELECTRON INTEGRALS .....
 CPU     0: STEP CPU TIME=     0.02 TOTAL CPU TIME=        0.4 (    0.0 MIN)
 TOTAL WALL CLOCK TIME=        0.8 SECONDS, CPU UTILIZATION IS  50.65%

          --------------------------
                 RHF SCF CALCULATION
          --------------------------

     NUCLEAR ENERGY =       334.5646995493
     MAXIT =  200     NPUNCH=    2
     EXTRAP=T  DAMP=F  SHIFT=F  RSTRCT=F  DIIS=F  DEM=F  SOSCF=T
     DENSITY MATRIX CONV=  2.00E-06
     SOSCF WILL OPTIMIZE    8323 ORBITAL ROTATIONS, SOGTOL=   0.250
     MEMORY REQUIRED FOR RHF ITERS=    982670 WORDS.

 DIRECT SCF CALCULATION, SCHWRZ=T   FDIFF=F,  DIRTHR=  0.00E+00 NITDIR=10
 SCHWARZ INEQUALITY OVERHEAD:     62118 INTEGRALS, T=        0.00

                                                                                   NONZERO     BLOCKS
 ITER EX DEM     TOTAL ENERGY        E CHANGE  DENSITY CHANGE     ORB. GRAD      INTEGRALS    SKIPPED
   1  0  0     -563.3235824994  -563.3235824994   0.380171240   0.000000000     1457561309    4202014
          ---------------START SECOND ORDER SCF---------------
   2  1  0     -564.4608000941    -1.1372175947   0.180988104   0.107427035     1445378901    4500384
   3  2  0     -564.5940905563    -0.1332904622   0.073226950   0.066759630     1444065312    4528632
   4  3  0     -564.7150107586    -0.1209202023   0.022739278   0.014253450     1444505664    4511982
   5  4  0     -564.7179630270    -0.0029522685   0.006888221   0.005944605     1444858951    4505256
   6  5  0     -564.7186622213    -0.0006991943   0.003315909   0.001457086     1444783368    4505813
   7  6  0     -564.7187259421    -0.0000637208   0.001173930   0.000361346     1444753782    4505952
   8  7  0     -564.7187324107    -0.0000064686   0.000345864   0.000129968     1444758843    4505914
   9  8  0     -564.7187331191    -0.0000007084   0.000132869   0.000048720     1444758451    4505941
  10  9  0     -564.7187332172    -0.0000000981   0.000055732   0.000016063     1444759897    4505950
  11 10  0     -564.7187332341    -0.0000000169   0.000025352   0.000006621     1444759475    4505968
  12 11  0     -564.7187332370    -0.0000000029   0.000011839   0.000002042     1444759771    4505971
  13 12  0     -564.7187332374    -0.0000000004   0.000004076   0.000000684     1444759279    4505968
  14 13  0     -564.7187332374    -0.0000000000   0.000001442   0.000000231     1444759447    4505964
  15 14  0     -564.7187332374    -0.0000000000   0.000000431   0.000000106     1444759419    4505965

          -----------------
          DENSITY CONVERGED
          -----------------
     TIME TO FORM FOCK OPERATORS=      98.2 SECONDS (       6.5 SEC/ITER)
     FOCK TIME ON FIRST ITERATION=       6.7, LAST ITERATION=       6.6
     TIME TO SOLVE SCF EQUATIONS=       0.4 SECONDS (       0.0 SEC/ITER)

 FINAL RHF ENERGY IS     -564.7187332374 AFTER  15 ITERATIONS

          ------------
          EIGENVECTORS
          ------------

                      1          2          3          4          5
                  -80.4864   -21.0577   -11.6426   -11.6426   -11.6425
                     A          A          A          A          A   
    1  LA 1  S    0.000004  -0.000013   0.000001   0.000004   0.000005
    2  LA 1  X    0.000000   0.000000  -0.000009  -0.000009   0.000009
    3  LA 1  Y   -0.000001  -0.000001  -0.000012   0.000006  -0.000006
    4  LA 1  Z    0.000005   0.000006  -0.000001   0.000008   0.000006
    5  LA 1 XX    0.000004  -0.000020   0.000009  -0.000005   0.000003
    6  LA 1 YY    0.000004  -0.000017  -0.000012   0.000008  -0.000004
    7  LA 1 ZZ   -0.000008   0.000037   0.000003  -0.000003   0.000001
    8  LA 1 XY    0.000000  -0.000000   0.000006   0.000005  -0.000005
    9  LA 1 XZ   -0.000000   0.000002   0.000009   0.000009  -0.000008
   10  LA 1 YZ    0.000003  -0.000015   0.000007  -0.000004   0.000003
   11  LA 1 XX    0.000001   0.000085  -0.000014   0.000038   0.000028
   12  LA 1 YY    0.000001   0.000073   0.000025   0.000010   0.000038
   13  LA 1 ZZ   -0.000002  -0.000158  -0.000011  -0.000048  -0.000065
   14  LA 1 XY    0.000000   0.000002  -0.000013  -0.000012   0.000013
   15  LA 1 XZ   -0.000000  -0.000010  -0.000012  -0.000016   0.000007
   16  LA 1 YZ    0.000001   0.000063  -0.000003   0.000025   0.000022
   17  LA 1  S   -0.000012  -0.000155  -0.000023  -0.000144  -0.000177
   18  LA 1  X    0.000000  -0.000004  -0.000016  -0.000017   0.000013
   19  LA 1  Y   -0.000000   0.000026  -0.000020   0.000023   0.000004
   20  LA 1  Z    0.000002  -0.000118  -0.000011  -0.000038  -0.000053
   21  LA 1  S    0.000006   0.000064   0.000036   0.000224   0.000275
   22  LA 1  X   -0.000000   0.000002   0.000037   0.000042  -0.000026
   23  LA 1  Y    0.000000  -0.000012   0.000042  -0.000071  -0.000031
   24  LA 1  Z   -0.000001   0.000054   0.000038   0.000171   0.000226
   25  LA 1  S   -0.000024  -0.000043  -0.000004  -0.000027  -0.000033
   26  LA 1  X   -0.000001  -0.000004   0.000017   0.000015  -0.000018
   27  LA 1  Y    0.000007   0.000028   0.000024  -0.000004   0.000021
   28  LA 1  Z   -0.000029  -0.000125  -0.000003  -0.000049  -0.000053
   29  LA 1 XX   -0.000001  -0.000019   0.000009  -0.000060  -0.000061
   30  LA 1 YY   -0.000001  -0.000016  -0.000037  -0.000026  -0.000067
   31  LA 1 ZZ    0.000002   0.000035   0.000028   0.000087   0.000128
   32  LA 1 XY   -0.000000  -0.000000   0.000008   0.000004  -0.000007
   33  LA 1 XZ    0.000000   0.000002   0.000032   0.000038  -0.000022
   34  LA 1 YZ   -0.000001  -0.000014   0.000026  -0.000059  -0.000035
   35  P  2  S    1.000137   0.000074   0.000015   0.000093   0.000115
   36  P  2  S    0.000169   0.000459   0.000105   0.000658   0.000810
   37  P  2  S    0.000185   0.000600   0.000162   0.001013   0.001248
   38  P  2  S   -0.000942  -0.000191  -0.000054  -0.000338  -0.000417
   39  P  2  S   -0.000352  -0.002401   0.000038   0.000233   0.000287
   40  P  2  X   -0.000003  -0.000004   0.000371   0.000372  -0.000339
   41  P  2  Y    0.000020   0.000026   0.000486  -0.000344   0.000146
   42  P  2  Z   -0.000088  -0.000116   0.000121   0.000069   0.000241
   43  P  2  X   -0.000003  -0.000011   0.000966   0.000970  -0.000885
   44  P  2  Y    0.000018   0.000071   0.001267  -0.000894   0.000385
   45  P  2  Z   -0.000081  -0.000318   0.000313   0.000164   0.000609
   46  P  2  X    0.000002   0.000005  -0.000049  -0.000050   0.000045
   47  P  2  Y   -0.000010  -0.000029  -0.000064   0.000048  -0.000016
   48  P  2  Z    0.000045   0.000130  -0.000018  -0.000020  -0.000046
   49  P  2  X   -0.000003   0.000046   0.000006   0.000017   0.000007
   50  P  2  Y    0.000019  -0.000289  -0.000002  -0.000070  -0.000077
   51  P  2  Z   -0.000086   0.001281   0.000050   0.000291   0.000360
   52  P  2 XX   -0.000004  -0.000064   0.000209  -0.000081   0.000117
   53  P  2 YY   -0.000003  -0.000055  -0.000222   0.000179  -0.000049
   54  P  2 ZZ    0.000007   0.000119   0.000014  -0.000098  -0.000068
   55  P  2 XY   -0.000000  -0.000002   0.000148   0.000143  -0.000134
   56  P  2 XZ    0.000000   0.000008   0.000108   0.000116  -0.000118
   57  P  2 YZ   -0.000003  -0.000048   0.000052  -0.000010   0.000059
   58  P  2 XX   -0.000028  -0.000070   0.000340   0.000018   0.000318
   59  P  2 YY   -0.000024  -0.000060  -0.000403   0.000431   0.000027
   60  P  2 ZZ    0.000053   0.000130   0.000063  -0.000449  -0.000345
   61  P  2 XY   -0.000001  -0.000002   0.000188   0.000170  -0.000153
   62  P  2 XZ    0.000003   0.000009   0.000338   0.000332  -0.000358
   63  P  2 YZ   -0.000021  -0.000052   0.000319  -0.000061   0.000288
   64  P  2 XXX   0.000001   0.000011   0.000030   0.000031  -0.000020
   65  P  2 YYY  -0.000006   0.000024   0.000026  -0.000094  -0.000073
   66  P  2 ZZZ  -0.000014  -0.000201  -0.000040  -0.000038  -0.000092
   67  P  2 XXY  -0.000001  -0.000169   0.000024   0.000052   0.000075
   68  P  2 XXZ   0.000011   0.000123   0.000027   0.000044   0.000089
   69  P  2 YYX   0.000000   0.000004   0.000005   0.000005  -0.000001
   70  P  2 YYZ   0.000008   0.000146   0.000026   0.000007   0.000035
   71  P  2 ZZX  -0.000001  -0.000019  -0.000045  -0.000046   0.000028
   72  P  2 ZZY   0.000009   0.000136  -0.000058   0.000074   0.000023
   73  P  2 XYZ   0.000000   0.000012   0.000026   0.000031  -0.000030
   74  P  2 XX    0.000001   0.000023  -0.000006   0.000004  -0.000001
   75  P  2 YY    0.000001   0.000019   0.000006  -0.000003   0.000003
   76  P  2 ZZ   -0.000002  -0.000042  -0.000001  -0.000001  -0.000002
   77  P  2 XY    0.000000   0.000001  -0.000004  -0.000004   0.000004
   78  P  2 XZ   -0.000000  -0.000003  -0.000002  -0.000003   0.000003
   79  P  2 YZ    0.000001   0.000017  -0.000000   0.000001   0.000000
   80  O  3  S    0.000000   0.975645   0.000004   0.000027   0.000034
   81  O  3  S    0.000001  -0.001092   0.000006   0.000040   0.000049
   82  O  3  S    0.000005   0.043362  -0.000002  -0.000012  -0.000015
   83  O  3  S   -0.000074   0.004768   0.000027   0.000162   0.000199
   84  O  3  X    0.000000   0.000019  -0.000005  -0.000006   0.000004
   85  O  3  Y   -0.000000  -0.000117  -0.000007   0.000007   0.000001
   86  O  3  Z    0.000001   0.000521  -0.000004  -0.000012  -0.000018
   87  O  3  X   -0.000001  -0.000022   0.000016   0.000018  -0.000013
   88  O  3  Y    0.000003   0.000137   0.000020  -0.000023  -0.000004
[...]
            144  C  4 XXZ     0.00083     0.07716
            145  C  4 YYX     0.00084     0.06919
            146  C  4 YYZ     0.00139     0.06648
            147  C  4 ZZX     0.00000     0.06921
            148  C  4 ZZY     0.00000     0.06663
            149  C  4 XYZ     0.00000     0.00296
            150  C  5  S      1.95557     1.55560
            151  C  5  S      0.82808     0.43084
            152  C  5  S      0.16170     0.27787
            153  C  5  S      0.32959     0.14788
            154  C  5  X      0.27160     0.21033
            155  C  5  Y      0.29451     0.22635
            156  C  5  Z      0.29379     0.22598
            157  C  5  X      0.51308     0.26525
            158  C  5  Y      0.53877     0.27955
            159  C  5  Z      0.53902     0.28048
            160  C  5  X      0.13257     0.18258
            161  C  5  Y      0.18801     0.20197
            162  C  5  Z      0.23432     0.20933
            163  C  5 XX      0.00520     0.08562
            164  C  5 YY      0.00522     0.08686
            165  C  5 ZZ      0.00429     0.08554
            166  C  5 XY      0.00415     0.00473
            167  C  5 XZ      0.00336     0.00450
            168  C  5 YZ      0.00000     0.00376
            169  C  5 XX      0.00846     0.09192
            170  C  5 YY      0.01281     0.09028
            171  C  5 ZZ      0.01166     0.08478
            172  C  5 XY      0.01036     0.02699
            173  C  5 XZ      0.00821     0.02448
            174  C  5 YZ      0.00000     0.01532
            175  C  5 XXX     0.00092     0.15923
            176  C  5 YYY     0.00073     0.17168
            177  C  5 ZZZ     0.00082     0.16835
            178  C  5 XXY     0.00125     0.07664
            179  C  5 XXZ     0.00088     0.07831
            180  C  5 YYX     0.00079     0.06905
            181  C  5 YYZ     0.00140     0.06677
            182  C  5 ZZX     0.00000     0.06958
            183  C  5 ZZY     0.00000     0.06649
            184  C  5 XYZ     0.00000     0.00288
            185  C  6  S      1.95557     1.55598
            186  C  6  S      0.82808     0.43283
            187  C  6  S      0.16170     0.27893
            188  C  6  S      0.32959     0.14872
            189  C  6  X      0.30160     0.22914
            190  C  6  Y      0.25916     0.20598
            191  C  6  Z      0.29914     0.22937
            192  C  6  X      0.54548     0.27992
            193  C  6  Y      0.49852     0.26559
            194  C  6  Z      0.54686     0.28056
            195  C  6  X      0.20057     0.20549
            196  C  6  Y      0.10535     0.17066
            197  C  6  Z      0.24898     0.21215
            198  C  6 XX      0.00567     0.08710
            199  C  6 YY      0.00608     0.09045
            200  C  6 ZZ      0.00352     0.08664
            201  C  6 XY      0.00428     0.00318
            202  C  6 XZ      0.00267     0.00453
            203  C  6 YZ      0.00000     0.00253
            204  C  6 XX      0.01067     0.08869
            205  C  6 YY      0.01489     0.10387
            206  C  6 ZZ      0.01030     0.08664
            207  C  6 XY      0.00857     0.02213
            208  C  6 XZ      0.00705     0.01966
            209  C  6 YZ      0.00000     0.01258
            210  C  6 XXX     0.00089     0.16314
            211  C  6 YYY     0.00096     0.16887
            212  C  6 ZZZ     0.00061     0.16655
            213  C  6 XXY     0.00140     0.07038
            214  C  6 XXZ     0.00093     0.07561
            215  C  6 YYX     0.00050     0.07888
            216  C  6 YYZ     0.00148     0.07324
            217  C  6 ZZX     0.00000     0.07399
            218  C  6 ZZY     0.00000     0.06378
            219  C  6 XYZ     0.00000     0.00264
            220  H  7  S      0.25253     0.19475
            221  H  7  S      0.45144     0.24424
            222  H  7  S      0.06004     0.11837
            223  H  7  X      0.00158     0.00203
            224  H  7  Y      0.00747     0.01104
            225  H  7  Z      0.00172     0.00218
            226  H  7  X      0.01039     0.02830
            227  H  7  Y      0.00498     0.04788
            228  H  7  Z      0.00863     0.02990
            229  H  7 XX      0.00030     0.06904
            230  H  7 YY      0.00065     0.11667
            231  H  7 ZZ      0.00100     0.06964
            232  H  7 XY      0.00009     0.00481
            233  H  7 XZ      0.00084     0.00015
            234  H  7 YZ      0.00000     0.00514
            235  H  8  S      0.24681     0.18991
            236  H  8  S      0.44715     0.23908
            237  H  8  S      0.04419     0.11342
            238  H  8  X      0.00159     0.00208
            239  H  8  Y      0.00184     0.00255
            240  H  8  Z      0.00734     0.01060
            241  H  8  X      0.00962     0.02869
            242  H  8  Y      0.00776     0.02882
            243  H  8  Z      0.00640     0.04773
            244  H  8 XX      0.00091     0.06778
            245  H  8 YY      0.00012     0.07012
            246  H  8 ZZ      0.00009     0.11205
            247  H  8 XY      0.00095     0.00020
            248  H  8 XZ      0.00080     0.00488
            249  H  8 YZ      0.00000     0.00539
            250  H  9  S      0.25253     0.18708
            251  H  9  S      0.45142     0.24217
            252  H  9  S      0.05998     0.11867
            253  H  9  X      0.00587     0.00777
            254  H  9  Y      0.00248     0.00353
            255  H  9  Z      0.00241     0.00336
            256  H  9  X      0.00989     0.04417
            257  H  9  Y      0.00689     0.03109
            258  H  9  Z      0.00722     0.03216
            259  H  9 XX      0.00045     0.09954
            260  H  9 YY      0.00090     0.07514
            261  H  9 ZZ      0.00063     0.07425
            262  H  9 XY      0.00065     0.00526
            263  H  9 XZ      0.00025     0.00527
            264  H  9 YZ      0.00000     0.00163
            265  H 10  S      0.25253     0.18641
            266  H 10  S      0.45141     0.24194
            267  H 10  S      0.05997     0.11863
            268  H 10  X      0.00564     0.00744
            269  H 10  Y      0.00246     0.00345
            270  H 10  Z      0.00267     0.00373
            271  H 10  X      0.01029     0.04363
            272  H 10  Y      0.00693     0.03098
            273  H 10  Z      0.00679     0.03291
            274  H 10 XX      0.00050     0.09762
            275  H 10 YY      0.00088     0.07451
            276  H 10 ZZ      0.00060     0.07634
            277  H 10 XY      0.00062     0.00497
            278  H 10 XZ      0.00027     0.00534
            279  H 10 YZ      0.00000     0.00190
            280  H 11  S      0.24681     0.18996
            281  H 11  S      0.44715     0.23904
            282  H 11  S      0.04419     0.11339
            283  H 11  X      0.00162     0.00217
            284  H 11  Y      0.00184     0.00254
            285  H 11  Z      0.00731     0.01054
            286  H 11  X      0.01000     0.02882
            287  H 11  Y      0.00777     0.02882
            288  H 11  Z      0.00601     0.04763
            289  H 11 XX      0.00089     0.06800
            290  H 11 YY      0.00013     0.07013
            291  H 11 ZZ      0.00010     0.11188
            292  H 11 XY      0.00096     0.00022
            293  H 11 XZ      0.00080     0.00491
            294  H 11 YZ      0.00000     0.00536
            295  H 12  S      0.25253     0.19474
            296  H 12  S      0.45145     0.24424
            297  H 12  S      0.06005     0.11834
            298  H 12  X      0.00157     0.00202
            299  H 12  Y      0.00747     0.01105
            300  H 12  Z      0.00172     0.00218
            301  H 12  X      0.01049     0.02840
            302  H 12  Y      0.00503     0.04793
            303  H 12  Z      0.00849     0.02978
            304  H 12 XX      0.00031     0.06907
            305  H 12 YY      0.00065     0.11667
            306  H 12 ZZ      0.00101     0.06961
            307  H 12 XY      0.00008     0.00479
            308  H 12 XZ      0.00083     0.00014
            309  H 12 YZ      0.00000     0.00515
            310  H 13  S      0.25253     0.18667
            311  H 13  S      0.45144     0.24146
            312  H 13  S      0.06003     0.11823
            313  H 13  X      0.00541     0.00692
            314  H 13  Y      0.00262     0.00396
            315  H 13  Z      0.00274     0.00387
            316  H 13  X      0.00437     0.04125
            317  H 13  Y      0.01271     0.03332
            318  H 13  Z      0.00693     0.03265
            319  H 13 XX      0.00050     0.09584
            320  H 13 YY      0.00073     0.07604
            321  H 13 ZZ      0.00072     0.07673
            322  H 13 XY      0.00061     0.00488
            323  H 13 XZ      0.00032     0.00523
            324  H 13 YZ      0.00000     0.00210
            325  H 14  S      0.25253     0.18745
            326  H 14  S      0.45143     0.24175
            327  H 14  S      0.06000     0.11825
            328  H 14  X      0.00565     0.00726
            329  H 14  Y      0.00264     0.00406
            330  H 14  Z      0.00247     0.00349
            331  H 14  X      0.00406     0.04200
            332  H 14  Y      0.01271     0.03348
            333  H 14  Z      0.00723     0.03173
            334  H 14 XX      0.00045     0.09788
            335  H 14 YY      0.00076     0.07675
            336  H 14 ZZ      0.00075     0.07455
            337  H 14 XY      0.00062     0.00518
            338  H 14 XZ      0.00029     0.00516
            339  H 14 YZ      0.00000     0.00182
            340  H 15  S      0.24681     0.19015
            341  H 15  S      0.44715     0.23917
            342  H 15  S      0.04419     0.11344
            343  H 15  X      0.00162     0.00209
            344  H 15  Y      0.00199     0.00307
            345  H 15  Z      0.00716     0.01019
            346  H 15  X      0.00791     0.02790
            347  H 15  Y      0.01149     0.03079
            348  H 15  Z      0.00438     0.04726
            349  H 15 XX      0.00086     0.06712
            350  H 15 YY      0.00020     0.07229
            351  H 15 ZZ      0.00011     0.11099
            352  H 15 XY      0.00077     0.00029
            353  H 15 XZ      0.00094     0.00502
            354  H 15 YZ      0.00000     0.00530

          ----- MULLIKEN ATOMIC OVERLAP POPULATIONS -----
          (OFF-DIAGONAL ELEMENTS NEED TO BE MULTIPLIED BY 2)

             1           2           3           4           5

    1    8.6772577
    2   -0.0108607  13.3067712
    3   -0.0533332   0.1855571   8.6867066
    4   -0.0001549   0.3461959  -0.0146522   5.0067836
    5   -0.0001553   0.3461963  -0.0146547  -0.0311765   5.0067921
    6   -0.0001548   0.3461944  -0.0146521  -0.0311631  -0.0311655
    7    0.0005825  -0.0168127   0.0008050   0.3646184  -0.0027451
    8    0.0004660  -0.0132007   0.0011231   0.3578014  -0.0004881
    9    0.0005792  -0.0168072   0.0008037   0.3646452   0.0023380
   10    0.0005792  -0.0168085   0.0008035   0.0023380   0.3646421
   11    0.0004658  -0.0131959   0.0011232  -0.0004855   0.3577991
   12    0.0005826  -0.0168129   0.0008054  -0.0027485   0.3646183
   13    0.0005814  -0.0168083   0.0008049   0.0023387  -0.0027528
   14    0.0005800  -0.0168059   0.0008041  -0.0027500   0.0023385
   15    0.0004669  -0.0132163   0.0011228  -0.0004853  -0.0004827

             6           7           8           9          10

    6    5.0067419
    7    0.0023393   0.4815847
    8   -0.0004841  -0.0103453   0.4515708
    9   -0.0027520  -0.0187837  -0.0103459   0.4814756
   10   -0.0027462  -0.0000053   0.0000191  -0.0000665   0.4814549
   11   -0.0004879  -0.0002085  -0.0000698   0.0000193  -0.0103442
   12    0.0023391   0.0006866  -0.0002080  -0.0000054  -0.0187831
   13    0.3646338  -0.0000666   0.0000188  -0.0000050   0.0006909
   14    0.3646390  -0.0000051  -0.0002077   0.0006925  -0.0000048
   15    0.3578084   0.0000190  -0.0000739  -0.0002086  -0.0002100

            11          12          13          14          15

   11    0.4515707
   12   -0.0103473   0.4816046
   13   -0.0002063  -0.0000054   0.4815569
   14    0.0000185  -0.0000665  -0.0187822   0.4814999
   15   -0.0000730   0.0000194  -0.0103468  -0.0103467   0.4515817

          TOTAL MULLIKEN AND LOWDIN ATOMIC POPULATIONS
       ATOM         MULL.POP.    CHARGE          LOW.POP.     CHARGE
    1 LA            8.617482    2.382518         8.776908    2.223092
    2 P            14.379586    0.620414        14.303727    0.696273
    3 O             8.783167   -0.783167         8.443558   -0.443558
    4 C             6.361105   -0.361105         6.026742   -0.026742
    5 C             6.361104   -0.361104         6.027757   -0.027757
    6 C             6.361090   -0.361090         6.040401   -0.040401
    7 H             0.801663    0.198337         0.944134    0.055866
    8 H             0.775576    0.224424         0.923300    0.076700
    9 H             0.801579    0.198421         0.931110    0.068890
   10 H             0.801559    0.198441         0.929818    0.070182
   11 H             0.775578    0.224422         0.923395    0.076605
   12 H             0.801679    0.198321         0.944111    0.055889
   13 H             0.801652    0.198348         0.929157    0.070843
   14 H             0.801604    0.198396         0.930815    0.069185
   15 H             0.775575    0.224425         0.925067    0.074933

          MULLIKEN SPHERICAL HARMONIC POPULATIONS
       ATOM           S       P       D      F      G      H      I    TOTAL
    1 LA            2.00    6.08    0.53   0.00   0.00   0.00   0.00    8.62
    2 P             5.35    8.39    0.56   0.07   0.00   0.00   0.00   14.38
    3 O             3.80    4.94    0.04   0.00   0.00   0.00   0.00    8.78
    4 C             3.27    3.01    0.07   0.01   0.00   0.00   0.00    6.36
    5 C             3.27    3.01    0.07   0.01   0.00   0.00   0.00    6.36
    6 C             3.27    3.01    0.07   0.01   0.00   0.00   0.00    6.36
    7 H             0.76    0.03    0.00   0.00   0.00   0.00   0.00    0.80
    8 H             0.74    0.03    0.00   0.00   0.00   0.00   0.00    0.78
    9 H             0.76    0.03    0.00   0.00   0.00   0.00   0.00    0.80
   10 H             0.76    0.03    0.00   0.00   0.00   0.00   0.00    0.80
   11 H             0.74    0.03    0.00   0.00   0.00   0.00   0.00    0.78
   12 H             0.76    0.03    0.00   0.00   0.00   0.00   0.00    0.80
   13 H             0.76    0.03    0.00   0.00   0.00   0.00   0.00    0.80
   14 H             0.76    0.03    0.00   0.00   0.00   0.00   0.00    0.80
   15 H             0.74    0.03    0.00   0.00   0.00   0.00   0.00    0.78

          -------------------------------
          BOND ORDER AND VALENCE ANALYSIS     BOND ORDER THRESHOLD=0.050
          -------------------------------

                   BOND                       BOND                       BOND
  ATOM PAIR DIST  ORDER      ATOM PAIR DIST  ORDER      ATOM PAIR DIST  ORDER
    1   3  2.000  0.686        2   3  1.716  0.735        2   4  1.771  1.023
    2   5  1.771  1.023        2   6  1.771  1.023        4   7  1.090  0.874
    4   8  1.096  0.855        4   9  1.090  0.874        5  10  1.090  0.874
    5  11  1.096  0.855        5  12  1.090  0.874        6  13  1.090  0.874
    6  14  1.090  0.874        6  15  1.096  0.855

                       TOTAL       BONDED        FREE
      ATOM            VALENCE     VALENCE     VALENCE
    1 LA                0.702       0.755      -0.053
    2 P                 4.560       4.211       0.349
    3 O                 2.002       1.458       0.544
    4 C                 3.931       3.639       0.293
    5 C                 3.931       3.639       0.293
    6 C                 3.931       3.639       0.293
    7 H                 0.975       0.924       0.051
    8 H                 0.966       0.916       0.050
    9 H                 0.975       0.924       0.051
   10 H                 0.975       0.924       0.051
   11 H                 0.966       0.916       0.050
   12 H                 0.975       0.924       0.051
   13 H                 0.975       0.924       0.051
   14 H                 0.975       0.924       0.051
   15 H                 0.966       0.916       0.050

          ---------------------
          ELECTROSTATIC MOMENTS
          ---------------------

 POINT   1           X           Y           Z (BOHR)    CHARGE
                -0.231536    1.531455   -4.923276        3.00 (A.U.)
         DX          DY          DZ         /D/  (DEBYE)
    -0.005696    0.035390   -0.157028    0.161067
 ...... END OF PROPERTY EVALUATION ......
 CPU     0: STEP CPU TIME=     0.23 TOTAL CPU TIME=     1538.2 (   25.6 MIN)
 TOTAL WALL CLOCK TIME=     1558.0 SECONDS, CPU UTILIZATION IS  98.73%
  $VIB   
          IVIB=   0 IATOM=   0 ICOORD=   0 E=     -565.6070807092
 -5.921559447E-07 1.257335272E-06 3.030750958E-07-2.066141438E-06 7.741915143E-06
 -2.569825663E-05 2.688474625E-06 5.427611787E-06-1.123609834E-05-5.801502238E-06
  1.654406033E-05-7.634633326E-05 5.223525597E-07 1.560237187E-05-7.679984045E-05
 -2.644689054E-06 1.459931915E-05-8.845904189E-05 1.995566213E-05 2.540757349E-06
  4.108088567E-05 5.930400197E-06 1.502868731E-06 3.685954879E-06 9.009736654E-07
 -3.845256046E-05 4.277904737E-05 2.496266855E-06-3.884724673E-05 4.359573347E-05
 -6.393810623E-06 3.280115768E-06 4.604703892E-06-1.782434498E-05 2.599839503E-06
  4.309856888E-05 2.266067969E-05 1.491621637E-06 4.432139528E-05-2.215251396E-05
  2.096098565E-06 5.088857355E-05 2.320348511E-06 2.615892079E-06 4.181632470E-06
 -5.695680584E-03 3.538983403E-02-1.570277065E-01
 ......END OF GEOMETRY SEARCH......
 CPU     0: STEP CPU TIME=     0.01 TOTAL CPU TIME=     1538.2 (   25.6 MIN)
 TOTAL WALL CLOCK TIME=     1558.0 SECONDS, CPU UTILIZATION IS  98.73%
               2991967  WORDS OF DYNAMIC MEMORY USED
 EXECUTION OF GAMESS TERMINATED NORMALLY Thu Jun  9 11:26:03 2016
 DDI: 44487344 bytes (42.4 MB / 5 MWords) used by master data server.

 ----------------------------------------
 CPU timing information for all processes
 ========================================
 0: 1535.324 + 3.03 = 1538.328
 1: 1534.552 + 2.802 = 1537.355
 2: 1533.923 + 2.719 = 1536.643
 3: 1534.15 + 2.756 = 1536.772
 4: 1535.142 + 2.948 = 1538.91
 5: 1534.605 + 2.735 = 1537.341
 6: 1535.845 + 2.756 = 1538.602
 7: 1536.227 + 2.737 = 1538.965
 8: 1536.218 + 2.942 = 1539.161
 9: 1536.820 + 2.775 = 1539.595
 10: 1536.387 + 2.746 = 1539.134
 11: 1535.112 + 2.721 = 1537.834
 12: 1535.795 + 2.687 = 1538.483
 13: 1535.641 + 2.827 = 1538.469
 14: 1535.227 + 2.800 = 1538.28
 15: 1535.809 + 2.236 = 1538.46
 16: 0.17 + 0.109 = 0.127
 17: 0.14 + 0.94 = 0.109
 18: 0.16 + 0.102 = 0.119
 19: 0.13 + 0.113 = 0.127
 20: 0.12 + 0.102 = 0.115
 21: 0.08 + 0.114 = 0.123
 22: 0.16 + 0.116 = 0.133
 23: 0.16 + 0.97 = 0.114
 24: 0.16 + 0.90 = 0.107
 25: 0.17 + 0.97 = 0.115
 26: 0.15 + 0.107 = 0.123
 27: 0.17 + 0.109 = 0.127
 28: 0.11 + 0.107 = 0.119
 29: 0.13 + 0.98 = 0.112
 30: 0.13 + 0.102 = 0.116
 31: 0.17 + 0.102 = 0.120
 ----------------------------------------
unset echo
----- accounting info -----
Files used on the master node node225 were:
-rw-r--r-- 1 fzahari quantum     1987 Jun  9 11:00 /local/scratch/fzahari/196590.share/bnd_var-020.F05
-rw-r--r-- 1 fzahari quantum 17178000 Jun  9 11:26 /local/scratch/fzahari/196590.share/bnd_var-020.F10
-rw-r--r-- 1 fzahari quantum        8 Jun  9 11:00 /local/scratch/fzahari/196590.share/bnd_var-020.nodes.mpd
ls: No match.
ls: No match.
ls: No match.
Thu Jun  9 11:26:05 CDT 2016
24567.526u 49.069s 26:02.34 1575.6%	0+0k 104+240904io 0pf+0w
