-catch_rsh /opt/gridengine/default/spool/compute-0-11/active_jobs/235041.1/pe_hostfile
compute-0-11
The primary node assigned by SGE to this run is compute-0-11
Warning: no access to tty (Bad file descriptor).
Thus no job control in this shell.
----- GAMESS execution script 'rungms' -----
This job is running on host compute-0-11.local
under operating system Linux at Fri Sep 20 15:06:22 CDT 2013
SGE has assigned the following compute nodes to this run:
compute-0-11
Available scratch disk space (Kbyte units) at beginning of the job is
Filesystem           1K-blocks      Used Available Use% Mounted on
/dev/md2             1382538700 405608272 905568124  31% /scratch
GAMESS temporary binary files will be written to /scratch/tmp/235041.1.exclusive.q
GAMESS supplementary output files will be written to /home/nuwan/scr
Copying input file opmmm-mp2-opt.inp to your run's scratch directory...
cp opmmm-mp2-opt.inp /scratch/tmp/235041.1.exclusive.q/opmmm-mp2-opt.F05
unset echo
setenv I_MPI_WAIT_MODE enable
setenv I_MPI_PIN disable
setenv I_MPI_DEBUG 0
setenv I_MPI_STATS 0
setenv I_MPI_FABRICS dapl
setenv I_MPI_DAT_LIBRARY libdat2.so
unset echo
MPI kickoff will run GAMESS on 8 cores in 1 nodes.
The binary to be executed is /home/mike/gamess/gamess.131.x
MPI will run 8 compute processes and 8 data servers,
    placing 8 of each process type onto each node.
The scratch disk space on each node is /scratch/tmp/235041.1.exclusive.q, with free space
Filesystem           1K-blocks      Used Available Use% Mounted on
/dev/md2             1382538700 405608284 905568112  31% /scratch
mpdboot --rsh=ssh -n 1 -f /scratch/tmp/235041.1.exclusive.q/opmmm-mp2-opt.nodes.mpd
mpiexec -configfile /scratch/tmp/235041.1.exclusive.q/opmmm-mp2-opt.processes.mpd
          ******************************************************
          *         GAMESS VERSION =  1 MAY 2013 (R1)          *
          *             FROM IOWA STATE UNIVERSITY             *
          * M.W.SCHMIDT, K.K.BALDRIDGE, J.A.BOATZ, S.T.ELBERT, *
          *   M.S.GORDON, J.H.JENSEN, S.KOSEKI, N.MATSUNAGA,   *
          *          K.A.NGUYEN, S.J.SU, T.L.WINDUS,           *
          *       TOGETHER WITH M.DUPUIS, J.A.MONTGOMERY       *
          *         J.COMPUT.CHEM.  14, 1347-1363(1993)        *
          **************** 64 BIT INTEL VERSION ****************

  SINCE 1993, STUDENTS AND POSTDOCS WORKING AT IOWA STATE UNIVERSITY
  AND ALSO IN THEIR VARIOUS JOBS AFTER LEAVING ISU HAVE MADE IMPORTANT
  CONTRIBUTIONS TO THE CODE:
     IVANA ADAMOVIC, CHRISTINE AIKENS, YURI ALEXEEV, POOJA ARORA,
     ANDREY ASADCHEV, ROB BELL, PRADIPTA BANDYOPADHYAY, JONATHAN BENTZ,
     BRETT BODE, GALINA CHABAN, WEI CHEN, CHEOL HO CHOI, PAUL DAY,
     ALBERT DEFUSCO, TIM DUDLEY, DMITRI FEDOROV, GRAHAM FLETCHER,
     MARK FREITAG, KURT GLAESEMANN, DAN KEMP, GRANT MERRILL,
     NORIYUKI MINEZAWA, JONATHAN MULLIN, TAKESHI NAGATA,
     SEAN NEDD, HEATHER NETZLOFF, BOSILJKA NJEGIC, RYAN OLSON, MIKE PAK,
     JIM SHOEMAKER, LYUDMILA SLIPCHENKO, SAROM SOK, JIE SONG,
     TETSUYA TAKETSUGU, SIMON WEBB, SOOHAENG YOO, FEDERICO ZAHARIEV

  ADDITIONAL CODE HAS BEEN PROVIDED BY COLLABORATORS IN OTHER GROUPS:
     IOWA STATE UNIVERSITY:
          JOE IVANIC, LAIMUTIS BYTAUTAS, KLAUS RUEDENBERG
     UNIVERSITY OF TOKYO: KIMIHIKO HIRAO, TAKAHITO NAKAJIMA,
          TAKAO TSUNEDA, MUNEAKI KAMIYA, SUSUMU YANAGISAWA,
          KIYOSHI YAGI, MAHITO CHIBA, SEIKEN TOKURA, NAOAKI KAWAKAMI
     UNIVERSITY OF AARHUS: FRANK JENSEN
     UNIVERSITY OF IOWA: VISVALDAS KAIRYS, HUI LI
     NATIONAL INST. OF STANDARDS AND TECHNOLOGY: WALT STEVENS, DAVID GARMER
     UNIVERSITY OF PISA: BENEDETTA MENNUCCI, JACOPO TOMASI
     UNIVERSITY OF MEMPHIS: HENRY KURTZ, PRAKASHAN KORAMBATH
     UNIVERSITY OF ALBERTA: TOBY ZENG, MARIUSZ KLOBUKOWSKI
     UNIVERSITY OF NEW ENGLAND: MARK SPACKMAN
     MIE UNIVERSITY: HIROAKI UMEDA
     MICHIGAN STATE UNIVERSITY:
          KAROL KOWALSKI, MARTA WLOCH, JEFFREY GOUR, JESSE LUTZ,
          WEI LI, PIOTR PIECUCH
     UNIVERSITY OF SILESIA: MONIKA MUSIAL, STANISLAW KUCHARSKI
     FACULTES UNIVERSITAIRES NOTRE-DAME DE LA PAIX:
          OLIVIER QUINET, BENOIT CHAMPAGNE
     UNIVERSITY OF CALIFORNIA - SANTA BARBARA: BERNARD KIRTMAN
     INSTITUTE FOR MOLECULAR SCIENCE:
          KAZUYA ISHIMURA, MICHIO KATOUDA, AND SHIGERU NAGASE
     UNIVERSITY OF NOTRE DAME: DAN CHIPMAN
     KYUSHU UNIVERSITY:
          HARUYUKI NAKANO,
          FENG LONG GU, JACEK KORCHOWIEC, MARCIN MAKOWSKI, AND YURIKO AOKI,
          HIROTOSHI MORI AND EISAKU MIYOSHI
     PENNSYLVANIA STATE UNIVERSITY:
          TZVETELIN IORDANOV, CHET SWALINA, JONATHAN SKONE,
          SHARON HAMMES-SCHIFFER
     WASEDA UNIVERSITY:
          MASATO KOBAYASHI, TOMOKO AKAMA, TSUGUKI TOUMA,
          TAKESHI YOSHIKAWA, YASUHIRO IKABATA, HIROMI NAKAI
     NANJING UNIVERSITY: SHUHUA LI
     UNIVERSITY OF NEBRASKA:
          PEIFENG SU, DEJUN SI, NANDUN THELLAMUREGE, YALI WANG, HUI LI
     UNIVERSITY OF ZURICH:
          ROBERTO PEVERATI, KIM BALDRIDGE
     N. COPERNICUS UNIVERSITY AND JACKSON STATE UNIVERSITY:
          MARIA BARYSZ


 PARALLEL VERSION RUNNING ON     8 PROCESSORS IN     1 NODES.

 EXECUTION OF GAMESS BEGUN Fri Sep 20 15:06:23 2013

            ECHO OF THE FIRST FEW INPUT CARDS -
 INPUT CARD> $CONTRL MULT=1 ICHARG=0 ICUT=11 RUNTYP=OPTIMIZE                                
 INPUT CARD>         SCFTYP=RHF MPLEVL=2 MAXIT=200 ISPHER=1 $END                            
 INPUT CARD> $BASIS  GBASIS=CCT $END                                                        
 INPUT CARD> $STATPT NSTEP=200 OPTTOL=0.00001 $END                                          
 INPUT CARD> $SYSTEM MWORDS=300 MEMDDI=300 $END                                             
 INPUT CARD> $SCF    DIRSCF=.T. FDIFF=.F. $END                                              
 INPUT CARD> $TRANS  DIRTRF=.T. $END                                                        
 INPUT CARD> $DATA                                                                          
 INPUT CARD> OPMMM                                                                          
 INPUT CARD> C1                                                                             
 INPUT CARD> P          15.0  -0.0585378311   0.0363841126  -0.0218046042                   
 INPUT CARD> O           8.0  -0.1988488488   0.1235782770   1.4533985157                   
 INPUT CARD> C           6.0  -0.8121309712   1.4108712766  -0.9227301435                   
 INPUT CARD> C           6.0  -0.8051462202  -1.4386685392  -0.7536354368                   
 INPUT CARD> C           6.0   1.6524358710   0.0059507933  -0.6052671243                   
 INPUT CARD> H           1.0  -1.8738136543   1.4480197096  -0.6859680184                   
 INPUT CARD> H           1.0  -0.6850333687   1.3053556246  -1.9987932241                   
 INPUT CARD> H           1.0  -0.3537246037   2.3417032264  -0.5940597801                   
 INPUT CARD> H           1.0  -0.3422184779  -2.3218459522  -0.3173958526                   
 INPUT CARD> H           1.0  -0.6783465396  -1.4604846605  -1.8346743890                   
 INPUT CARD> H           1.0  -1.8666803293  -1.4527974601  -0.5137371506                   
 INPUT CARD> H           1.0   2.1596696339  -0.8511510050  -0.1662927129                   
 INPUT CARD> H           1.0   2.1553335643   0.9114595235  -0.2709695649                   
 INPUT CARD> H           1.0   1.7070381238  -0.0583748167  -1.6906617242                   
 INPUT CARD> $END                                                                           
  300000000 WORDS OF MEMORY AVAILABLE

     BASIS OPTIONS
     -------------
     GBASIS=CCT          IGAUSS=       0      POLAR=NONE    
     NDFUNC=       0     NFFUNC=       0     DIFFSP=       F
     NPFUNC=       0      DIFFS=       F     BASNAM=        


     RUN TITLE
     ---------
  OPMMM                                                                          

 THE POINT GROUP OF THE MOLECULE IS C1      
 THE ORDER OF THE PRINCIPAL AXIS IS     0

 ATOM      ATOMIC                      COORDINATES (BOHR)
           CHARGE         X                   Y                   Z
 P          15.0    -0.1106204607        0.0687560031       -0.0412047272
 O           8.0    -0.3757698372        0.2335290816        2.7465249456
 C           6.0    -1.5347050017        2.6661601167       -1.7437071318
 C           6.0    -1.5215057362       -2.7186893262       -1.4241644702
 C           6.0     3.1226510085        0.0112453687       -1.1437890143
 H           1.0    -3.5409943587        2.7363604760       -1.2962915911
 H           1.0    -1.2945253593        2.4667644470       -3.7771714997
 H           1.0    -0.6684425761        4.4251774425       -1.1226102047
 H           1.0    -0.6466991512       -4.3876526354       -0.5997911911
 H           1.0    -1.2818890846       -2.7599158176       -3.4670318719
 H           1.0    -3.5275143290       -2.7453891152       -0.9708224443
 H           1.0     4.0811838321       -1.6084421736       -0.3142476611
 H           1.0     4.0729898487        1.7224087483       -0.5120582287
 H           1.0     3.2258343046       -0.1103124081       -3.1948873967

          INTERNUCLEAR DISTANCES (ANGS.)
          ------------------------------

                1 P          2 O          3 C          4 C          5 C     

   1 P       0.0000000    1.4844239 *  1.8079780 *  1.8079770 *  1.8079783 *
   2 O       1.4844239 *  0.0000000    2.7711416 *  2.7711388 *  2.7711361 *
   3 C       1.8079780 *  2.7711416 *  0.0000000    2.8545611 *  2.8545882 *
   4 C       1.8079770 *  2.7711388 *  2.8545611 *  0.0000000    2.8545837 *
   5 C       1.8079783 *  2.7711361 *  2.8545882 *  2.8545837 *  0.0000000  
   6 H       2.3935443 *  3.0226712    1.0883963 *  3.0788956    3.8105788  
   7 H       2.4313102 *  3.6811141    1.0886685 *  3.0157111    3.0156476  
   8 H       2.3935554 *  3.0226065    1.0883973 *  3.8105717    3.0790493  
   9 H       2.3935534 *  3.0226424    3.8105676    1.0883976 *  3.0789858  
  10 H       2.4313115 *  3.6811135    3.0156634    1.0886686 *  3.0156959  
  11 H       2.3935410 *  3.0226222    3.0789525    1.0883958 *  3.8105778  
  12 H       2.3935413 *  3.0225993    3.8105828    3.0790066    1.0883970 *
  13 H       2.3935469 *  3.0226440    3.0789689    3.8105785    1.0883965 *
  14 H       2.4313210 *  3.6811176    3.0157281    3.0156756    1.0886692 *

                6 H          7 H          8 H          9 H         10 H     

   1 P       2.3935443 *  2.4313102 *  2.3935554 *  2.3935534 *  2.4313115 *
   2 O       3.0226712    3.6811141    3.0226065    3.0226424    3.6811135  
   3 C       1.0883963 *  1.0886685 *  1.0883973 *  3.8105676    3.0156634  
   4 C       3.0788956    3.0157111    3.8105717    1.0883976 *  1.0886686 *
   5 C       3.8105788    3.0156476    3.0790493    3.0789858    3.0156959  
   6 H       0.0000000    1.7768122 *  1.7657259 *  4.0857700    3.3478449  
   7 H       1.7768122 *  0.0000000    1.7768112 *  4.0126314    2.7707133 *
   8 H       1.7657259 *  1.7768112 *  0.0000000    4.6717627    4.0126222  
   9 H       4.0857700    4.0126314    4.6717627    0.0000000    1.7768116 *
  10 H       3.3478449    2.7707133 *  4.0126222    1.7768116 *  0.0000000  
  11 H       2.9059344 *  3.3479978    4.0857952    1.7657234 *  1.7768150 *
  12 H       4.6717487    4.0125944    4.0858847    2.9060661 *  3.3480025  
  13 H       4.0858473    3.3478669    2.9060897 *  4.0858519    4.0126095  
  14 H       4.0126218    2.7706880 *  3.3480821    3.3479267    2.7706879 *

               11 H         12 H         13 H         14 H     

   1 P       2.3935410 *  2.3935413 *  2.3935469 *  2.4313210 *
   2 O       3.0226222    3.0225993    3.0226440    3.6811176  
   3 C       3.0789525    3.8105828    3.0789689    3.0157281  
   4 C       1.0883958 *  3.0790066    3.8105785    3.0156756  
   5 C       3.8105778    1.0883970 *  1.0883965 *  1.0886692 *
   6 H       2.9059344 *  4.6717487    4.0858473    4.0126218  
   7 H       3.3479978    4.0125944    3.3478669    2.7706880 *
   8 H       4.0857952    4.0858847    2.9060897 *  3.3480821  
   9 H       1.7657234 *  2.9060661 *  4.0858519    3.3479267  
  10 H       1.7768150 *  3.3480025    4.0126095    2.7706879 *
  11 H       0.0000000    4.0858524    4.6717495    4.0126088  
  12 H       4.0858524    0.0000000    1.7657214 *  1.7768146 *
  13 H       4.6717495    1.7657214 *  0.0000000    1.7768155 *
  14 H       4.0126088    1.7768146 *  1.7768155 *  0.0000000  

  * ... LESS THAN  3.000


     ATOMIC BASIS SET
     ----------------
 THE CONTRACTED PRIMITIVE FUNCTIONS HAVE BEEN UNNORMALIZED
 THE CONTRACTED BASIS FUNCTIONS ARE NOW NORMALIZED TO UNITY

  SHELL TYPE  PRIMITIVE        EXPONENT          CONTRACTION COEFFICIENT(S)

 P         

      1   S       1        312400.0000000    0.000057689641
      1   S       2         46800.0000000    0.000448246591
      1   S       3         10650.0000000    0.002349131061
      1   S       4          3018.0000000    0.009781571802
      1   S       5           986.8000000    0.034142936511
      1   S       6           357.4000000    0.100192955985
      1   S       7           139.6000000    0.234346168617
      1   S       8            57.6300000    0.382391849918
      1   S       9            24.6000000    0.318052941833
      1   S      10            10.1200000    0.070770999093
      1   S      11             4.2830000   -0.001817789630
      1   S      12             1.8050000    0.002161561737
      1   S      13             0.2782000    0.000432249354

      2   S      14        312400.0000000   -0.000016380204
      2   S      15         46800.0000000   -0.000127233535
      2   S      16         10650.0000000   -0.000668625166
      2   S      17          3018.0000000   -0.002795303744
      2   S      18           986.8000000   -0.009928227435
      2   S      19           357.4000000   -0.030244566456
      2   S      20           139.6000000   -0.077884705328
      2   S      21            57.6300000   -0.156724571545
      2   S      22            24.6000000   -0.198042753651
      2   S      23            10.1200000    0.037971251521
      2   S      24             4.2830000    0.552751544147
      2   S      25             1.8050000    0.542611452452
      2   S      26             0.2782000   -0.009675942874

      3   S      27        312400.0000000    0.000006865735
      3   S      28         46800.0000000    0.000053281983
      3   S      29         10650.0000000    0.000280421002
      3   S      30          3018.0000000    0.001170789768
      3   S      31           986.8000000    0.004173591138
      3   S      32           357.4000000    0.012720496749
      3   S      33           139.6000000    0.033152766352
      3   S      34            57.6300000    0.067671246836
      3   S      35            24.6000000    0.089831018862
      3   S      36            10.1200000   -0.020305232360
      3   S      37             4.2830000   -0.313280408979
      3   S      38             1.8050000   -0.563687905527
      3   S      39             0.2782000    1.117494073734

      4   S      40             0.6158000    1.000000000000

      5   S      41             0.1055000    1.000000000000

      6   P      42           504.9000000    0.002433660431
      6   P      43           119.4000000    0.019305559477
      6   P      44            37.9600000    0.088473106893
      6   P      45            13.9500000    0.254701981099
      6   P      46             5.4570000    0.440199242653
      6   P      47             2.1770000    0.383632006272
      6   P      48             0.2877000   -0.003946337074

      7   P      49           504.9000000   -0.000954298933
      7   P      50           119.4000000   -0.007664025747
      7   P      51            37.9600000   -0.035465925259
      7   P      52            13.9500000   -0.106164716437
      7   P      53             5.4570000   -0.187210586037
      7   P      54             2.1770000   -0.181495819791
      7   P      55             0.2877000    0.991672644618

      8   P      56             0.8010000    1.000000000000

      9   P      57             0.0971400    1.000000000000

     10   D      58             0.6480000    1.000000000000

     11   D      59             0.2180000    1.000000000000

     12   F      60             0.4520000    1.000000000000

     13   D      61             3.1200000    1.000000000000

 O         

     14   S      62         15330.0000000    0.000520198307
     14   S      63          2299.0000000    0.004023344781
     14   S      64           522.4000000    0.020729083329
     14   S      65           147.3000000    0.081082327080
     14   S      66            47.5500000    0.236226352118
     14   S      67            16.7600000    0.443518209420
     14   S      68             6.2070000    0.358670588689
     14   S      69             0.6882000   -0.008349797237

     15   S      70         15330.0000000   -0.000197236012
     15   S      71          2299.0000000   -0.001535010700
     15   S      72           522.4000000   -0.007951183914
     15   S      73           147.3000000   -0.032113452892
     15   S      74            47.5500000   -0.100269643049
     15   S      75            16.7600000   -0.234047111838
     15   S      76             6.2070000   -0.301410927756
     15   S      77             0.6882000    1.034919649508

     16   S      78             1.7520000    1.000000000000

     17   S      79             0.2384000    1.000000000000

     18   P      80            34.4600000    0.041163489568
     18   P      81             7.7490000    0.257762835858
     18   P      82             2.2800000    0.802419274427

     19   P      83             0.7156000    1.000000000000

     20   P      84             0.2140000    1.000000000000

     21   D      85             2.3140000    1.000000000000

     22   D      86             0.6450000    1.000000000000

     23   F      87             1.4280000    1.000000000000

 C         

     24   S      88          8236.0000000    0.000542430189
     24   S      89          1235.0000000    0.004196427901
     24   S      90           280.8000000    0.021540914108
     24   S      91            79.2700000    0.083614949614
     24   S      92            25.5900000    0.239871618922
     24   S      93             8.9970000    0.443751820060
     24   S      94             3.3190000    0.353579696469
     24   S      95             0.3643000   -0.009176366076

     25   S      96          8236.0000000   -0.000196392234
     25   S      97          1235.0000000   -0.001525950274
     25   S      98           280.8000000   -0.007890449028
     25   S      99            79.2700000   -0.031514870532
     25   S     100            25.5900000   -0.096910008320
     25   S     101             8.9970000   -0.220541526288
     25   S     102             3.3190000   -0.296069112937
     25   S     103             0.3643000    1.040503432950

     26   S     104             0.9059000    1.000000000000

     27   S     105             0.1285000    1.000000000000

     28   P     106            18.7100000    0.039426387165
     28   P     107             4.1330000    0.244088984924
     28   P     108             1.2000000    0.815492008943

     29   P     109             0.3827000    1.000000000000

     30   P     110             0.1209000    1.000000000000

     31   D     111             1.0970000    1.000000000000

     32   D     112             0.3180000    1.000000000000

     33   F     113             0.7610000    1.000000000000

 C         

     34   S     114          8236.0000000    0.000542430189
     34   S     115          1235.0000000    0.004196427901
     34   S     116           280.8000000    0.021540914108
     34   S     117            79.2700000    0.083614949614
     34   S     118            25.5900000    0.239871618922
     34   S     119             8.9970000    0.443751820060
     34   S     120             3.3190000    0.353579696469
     34   S     121             0.3643000   -0.009176366076

     35   S     122          8236.0000000   -0.000196392234
     35   S     123          1235.0000000   -0.001525950274
     35   S     124           280.8000000   -0.007890449028
     35   S     125            79.2700000   -0.031514870532
     35   S     126            25.5900000   -0.096910008320
     35   S     127             8.9970000   -0.220541526288
     35   S     128             3.3190000   -0.296069112937
     35   S     129             0.3643000    1.040503432950

     36   S     130             0.9059000    1.000000000000

     37   S     131             0.1285000    1.000000000000

     38   P     132            18.7100000    0.039426387165
     38   P     133             4.1330000    0.244088984924
     38   P     134             1.2000000    0.815492008943

     39   P     135             0.3827000    1.000000000000

     40   P     136             0.1209000    1.000000000000

     41   D     137             1.0970000    1.000000000000

     42   D     138             0.3180000    1.000000000000

     43   F     139             0.7610000    1.000000000000

 C         

     44   S     140          8236.0000000    0.000542430189
     44   S     141          1235.0000000    0.004196427901
     44   S     142           280.8000000    0.021540914108
     44   S     143            79.2700000    0.083614949614
     44   S     144            25.5900000    0.239871618922
     44   S     145             8.9970000    0.443751820060
     44   S     146             3.3190000    0.353579696469
     44   S     147             0.3643000   -0.009176366076

     45   S     148          8236.0000000   -0.000196392234
     45   S     149          1235.0000000   -0.001525950274
     45   S     150           280.8000000   -0.007890449028
     45   S     151            79.2700000   -0.031514870532
     45   S     152            25.5900000   -0.096910008320
     45   S     153             8.9970000   -0.220541526288
     45   S     154             3.3190000   -0.296069112937
     45   S     155             0.3643000    1.040503432950

     46   S     156             0.9059000    1.000000000000

     47   S     157             0.1285000    1.000000000000

     48   P     158            18.7100000    0.039426387165
     48   P     159             4.1330000    0.244088984924
     48   P     160             1.2000000    0.815492008943

     49   P     161             0.3827000    1.000000000000

     50   P     162             0.1209000    1.000000000000

     51   D     163             1.0970000    1.000000000000

     52   D     164             0.3180000    1.000000000000

     53   F     165             0.7610000    1.000000000000

 H         

     54   S     166            33.8700000    0.025494863235
     54   S     167             5.0950000    0.190362765893
     54   S     168             1.1590000    0.852162022245

     55   S     169             0.3258000    1.000000000000

     56   S     170             0.1027000    1.000000000000

     57   P     171             1.4070000    1.000000000000

     58   P     172             0.3880000    1.000000000000

     59   D     173             1.0570000    1.000000000000

 H         

     60   S     174            33.8700000    0.025494863235
     60   S     175             5.0950000    0.190362765893
     60   S     176             1.1590000    0.852162022245

     61   S     177             0.3258000    1.000000000000

     62   S     178             0.1027000    1.000000000000

     63   P     179             1.4070000    1.000000000000

     64   P     180             0.3880000    1.000000000000

     65   D     181             1.0570000    1.000000000000

 H         

     66   S     182            33.8700000    0.025494863235
     66   S     183             5.0950000    0.190362765893
     66   S     184             1.1590000    0.852162022245

     67   S     185             0.3258000    1.000000000000

     68   S     186             0.1027000    1.000000000000

     69   P     187             1.4070000    1.000000000000

     70   P     188             0.3880000    1.000000000000

     71   D     189             1.0570000    1.000000000000

 H         

     72   S     190            33.8700000    0.025494863235
     72   S     191             5.0950000    0.190362765893
     72   S     192             1.1590000    0.852162022245

     73   S     193             0.3258000    1.000000000000

     74   S     194             0.1027000    1.000000000000

     75   P     195             1.4070000    1.000000000000

     76   P     196             0.3880000    1.000000000000

     77   D     197             1.0570000    1.000000000000

 H         

     78   S     198            33.8700000    0.025494863235
     78   S     199             5.0950000    0.190362765893
     78   S     200             1.1590000    0.852162022245

     79   S     201             0.3258000    1.000000000000

     80   S     202             0.1027000    1.000000000000

     81   P     203             1.4070000    1.000000000000

     82   P     204             0.3880000    1.000000000000

     83   D     205             1.0570000    1.000000000000

 H         

     84   S     206            33.8700000    0.025494863235
     84   S     207             5.0950000    0.190362765893
     84   S     208             1.1590000    0.852162022245

     85   S     209             0.3258000    1.000000000000

     86   S     210             0.1027000    1.000000000000

     87   P     211             1.4070000    1.000000000000

     88   P     212             0.3880000    1.000000000000

     89   D     213             1.0570000    1.000000000000

 H         

     90   S     214            33.8700000    0.025494863235
     90   S     215             5.0950000    0.190362765893
     90   S     216             1.1590000    0.852162022245

     91   S     217             0.3258000    1.000000000000

     92   S     218             0.1027000    1.000000000000

     93   P     219             1.4070000    1.000000000000

     94   P     220             0.3880000    1.000000000000

     95   D     221             1.0570000    1.000000000000

 H         

     96   S     222            33.8700000    0.025494863235
     96   S     223             5.0950000    0.190362765893
     96   S     224             1.1590000    0.852162022245

     97   S     225             0.3258000    1.000000000000

     98   S     226             0.1027000    1.000000000000

     99   P     227             1.4070000    1.000000000000

    100   P     228             0.3880000    1.000000000000

    101   D     229             1.0570000    1.000000000000

 H         

    102   S     230            33.8700000    0.025494863235
    102   S     231             5.0950000    0.190362765893
    102   S     232             1.1590000    0.852162022245

    103   S     233             0.3258000    1.000000000000

    104   S     234             0.1027000    1.000000000000

    105   P     235             1.4070000    1.000000000000

    106   P     236             0.3880000    1.000000000000

    107   D     237             1.0570000    1.000000000000

 TOTAL NUMBER OF BASIS SET SHELLS             =  107
 NUMBER OF CARTESIAN GAUSSIAN BASIS FUNCTIONS =  320
 NOTE: THIS RUN WILL RESTRICT THE MO VARIATION SPACE TO SPHERICAL HARMONICS.
 THE NUMBER OF ORBITALS KEPT IN THE VARIATIONAL SPACE WILL BE PRINTED LATER.
 NUMBER OF ELECTRONS                          =   50
 CHARGE OF MOLECULE                           =    0
 SPIN MULTIPLICITY                            =    1
 NUMBER OF OCCUPIED ORBITALS (ALPHA)          =   25
 NUMBER OF OCCUPIED ORBITALS (BETA )          =   25
 TOTAL NUMBER OF ATOMS                        =   14
 THE NUCLEAR REPULSION ENERGY IS      261.2874125603

     $CONTRL OPTIONS
     ---------------
 SCFTYP=RHF          RUNTYP=OPTIMIZE     EXETYP=RUN     
 MPLEVL=       2     CITYP =NONE         CCTYP =NONE         VBTYP =NONE    
 DFTTYP=NONE         TDDFT =NONE    
 MULT  =       1     ICHARG=       0     NZVAR =       0     COORD =UNIQUE  
 PP    =NONE         RELWFN=NONE         LOCAL =NONE         NUMGRD=       F
 ISPHER=       1     NOSYM =       0     MAXIT =     200     UNITS =ANGS    
 PLTORB=       F     MOLPLT=       F     AIMPAC=       F     FRIEND=        
 NPRINT=       7     IREST =       0     GEOM  =INPUT   
 NORMF =       0     NORMP =       0     ITOL  =      20     ICUT  =      11
 INTTYP=BEST         GRDTYP=BEST         QMTTOL= 1.0E-06     RDMTYP=NONE    

     $SYSTEM OPTIONS
     ---------------
  REPLICATED MEMORY=   300000000 WORDS (ON EVERY NODE).
 DISTRIBUTED MEMDDI=         300 MILLION WORDS IN AGGREGATE,
 MEMDDI DISTRIBUTED OVER   8 PROCESSORS IS    37500000 WORDS/PROCESSOR.
 TOTAL MEMORY REQUESTED ON EACH PROCESSOR=   337500000 WORDS.
 TIMLIM=      525600.00 MINUTES, OR     365.0 DAYS.
 PARALL= T  BALTYP=  DLB     KDIAG=    0  COREFL= F
 MXSEQ2=     300 MXSEQ3=     150

          ----------------
          PROPERTIES INPUT
          ----------------

     MOMENTS            FIELD           POTENTIAL          DENSITY
 IEMOM =       1   IEFLD =       0   IEPOT =       0   IEDEN =       0
 WHERE =COMASS     WHERE =NUCLEI     WHERE =NUCLEI     WHERE =NUCLEI  
 OUTPUT=BOTH       OUTPUT=BOTH       OUTPUT=BOTH       OUTPUT=BOTH    
 IEMINT=       0   IEFINT=       0                     IEDINT=       0
                                                       MORB  =       0
          EXTRAPOLATION IN EFFECT
          SOSCF IN EFFECT
 ORBITAL PRINTING OPTION: NPREO=     1   320     2     1

     -------------------------------
     INTEGRAL TRANSFORMATION OPTIONS
     -------------------------------
     NWORD  =            0
     CUTOFF = 1.0E-09     MPTRAN =       0
     DIRTRF =       T     AOINTS =DUP     

          ----------------------
          INTEGRAL INPUT OPTIONS
          ----------------------
 NOPK  =       1 NORDER=       0 SCHWRZ=       T

          -----------------------
          MP2 CONTROL INFORMATION
          -----------------------
          NACORE =        9  NBCORE =        9
          LMOMP2 =        F  AOINTS = DUP     
          METHOD =        2  NWORD  =               0
          MP2PRP =        F  OSPT   = NONE    
          CUTOFF = 1.00E-09  CPHFBS = BASISAO 
          CODE   = DDI     

          NUMBER OF CORE -A-  ORBITALS =     9
          NUMBER OF CORE -B-  ORBITALS =     9
          NUMBER OF OCC. -A-  ORBITALS =    25
          NUMBER OF OCC. -B-  ORBITALS =    25
          NUMBER OF MOLECULAR ORBITALS =   320
          NUMBER OF   BASIS  FUNCTIONS =   320


     ------------------------------------------
     THE POINT GROUP IS C1 , NAXIS= 0, ORDER= 1
     ------------------------------------------

 -- VARIATIONAL SPACE WILL BE RESTRICTED TO PURE SPHERICAL HARMONICS ONLY --
 AFTER EXCLUDING CONTAMINANT COMBINATIONS FROM THE CARTESIAN GAUSSIAN BASIS
 SET, THE NUMBER OF SPHERICAL HARMONICS KEPT IN THE VARIATION SPACE IS  285

     DIMENSIONS OF THE SYMMETRY SUBSPACES ARE
 A   =  285

 ..... DONE SETTING UP THE RUN .....
 CPU     0: STEP CPU TIME=     0.05 TOTAL CPU TIME=        0.0 (    0.0 MIN)
 TOTAL WALL CLOCK TIME=        0.1 SECONDS, CPU UTILIZATION IS  83.33%


          -----------------------------
          STATIONARY POINT LOCATION RUN
          -----------------------------

 OBTAINING INITIAL HESSIAN, HESS=GUESS   
 CARTESIAN COORDINATE OPTIMIZATION USING BADGER'S RULE FORCE CONSTANT GUESS

          PARAMETERS CONTROLLING GEOMETRY SEARCH ARE
          METHOD =QA                  UPHESS =BFGS    
          NNEG   =         0          NFRZ   =         0
          NSTEP  =       200          IFOLOW =         1
          HESS   =GUESS               RESTAR =         F
          IHREP  =         0          HSSEND =         F
          NPRT   =         0          NPUN   =         0
          OPTTOL = 1.000E-05          RMIN   = 1.500E-03
          RMAX   = 1.000E-01          RLIM   = 7.000E-02
          DXMAX  = 3.000E-01          PURIFY =         F
          MOVIE  =         F          TRUPD  =         T
          TRMAX  = 5.000E-01          TRMIN  = 5.000E-02
          ITBMAT =         5          STPT   =         F
          STSTEP = 1.000E-02          PROJCT=          T

 BEGINNING GEOMETRY SEARCH POINT NSERCH=   0 ...

 COORDINATES OF ALL ATOMS ARE (ANGS)
   ATOM   CHARGE       X              Y              Z
 ------------------------------------------------------------
 P          15.0  -0.0585378311   0.0363841126  -0.0218046042
 O           8.0  -0.1988488488   0.1235782770   1.4533985157
 C           6.0  -0.8121309712   1.4108712766  -0.9227301435
 C           6.0  -0.8051462202  -1.4386685392  -0.7536354368
 C           6.0   1.6524358710   0.0059507933  -0.6052671243
 H           1.0  -1.8738136543   1.4480197096  -0.6859680184
 H           1.0  -0.6850333687   1.3053556246  -1.9987932241
 H           1.0  -0.3537246037   2.3417032264  -0.5940597801
 H           1.0  -0.3422184779  -2.3218459522  -0.3173958526
 H           1.0  -0.6783465396  -1.4604846605  -1.8346743890
 H           1.0  -1.8666803293  -1.4527974601  -0.5137371506
 H           1.0   2.1596696339  -0.8511510050  -0.1662927129
 H           1.0   2.1553335643   0.9114595235  -0.2709695649
 H           1.0   1.7070381238  -0.0583748167  -1.6906617242

          ********************
          1 ELECTRON INTEGRALS
          ********************
 ...... END OF ONE-ELECTRON INTEGRALS ......
 CPU     0: STEP CPU TIME=     0.03 TOTAL CPU TIME=        0.1 (    0.0 MIN)
 TOTAL WALL CLOCK TIME=        0.1 SECONDS, CPU UTILIZATION IS 100.00%

          -------------
          GUESS OPTIONS
          -------------
          GUESS =HUCKEL            NORB  =       0          NORDER=       0
          MIX   =       F          PRTMO =       F          PUNMO =       F
          TOLZ  = 1.0E-08          TOLE  = 1.0E-05
          SYMDEN=       F          PURIFY=       F

 INITIAL GUESS ORBITALS GENERATED BY HUCKEL   ROUTINE.
 HUCKEL GUESS REQUIRES    746852 WORDS.

 STATISTICS FOR GENERATION OF SYMMETRY ORBITAL -Q- MATRIX
 NUMBER OF CARTESIAN ATOMIC ORBITALS=        320
 NUMBER OF SPHERICAL CONTAMINANTS DROPPED=    35
 NUMBER OF LINEARLY DEPENDENT MOS DROPPED=     0
 TOTAL NUMBER OF MOS IN VARIATION SPACE=     285

 SYMMETRIES FOR INITIAL GUESS ORBITALS FOLLOW.   BOTH SET(S).
    25 ORBITALS ARE OCCUPIED (    9 CORE ORBITALS).
    10=A       11=A       12=A       13=A       14=A       15=A       16=A   
    17=A       18=A       19=A       20=A       21=A       22=A       23=A   
    24=A       25=A       26=A       27=A       28=A       29=A       30=A   
    31=A       32=A       33=A       34=A       35=A   
 ...... END OF INITIAL ORBITAL SELECTION ......
 CPU     0: STEP CPU TIME=     0.18 TOTAL CPU TIME=        0.3 (    0.0 MIN)
 TOTAL WALL CLOCK TIME=        0.3 SECONDS, CPU UTILIZATION IS  92.86%

                    ----------------------
                    AO INTEGRAL TECHNOLOGY
                    ----------------------
     S,P,L SHELL ROTATED AXIS INTEGRALS, REPROGRAMMED BY
        KAZUYA ISHIMURA (IMS) AND JOSE SIERRA (SYNSTAR).
     S,P,D,L SHELL ROTATED AXIS INTEGRALS PROGRAMMED BY
        KAZUYA ISHIMURA (INSTITUTE FOR MOLECULAR SCIENCE).
     S,P,D,F,G SHELL TO TOTAL QUARTET ANGULAR MOMENTUM SUM 5,
        ERIC PROGRAM BY GRAHAM FLETCHER (ELORET AND NASA ADVANCED
        SUPERCOMPUTING DIVISION, AMES RESEARCH CENTER).
     S,P,D,F,G,L SHELL GENERAL RYS QUADRATURE PROGRAMMED BY
        MICHEL DUPUIS (PACIFIC NORTHWEST NATIONAL LABORATORY).

          --------------------
          2 ELECTRON INTEGRALS
          --------------------

 DIRECT SCF METHOD SKIPS INTEGRAL STORAGE ON DISK.
 DIRECT TRANSFORMATION SKIPS AO INTEGRAL STORAGE ON DISK.
  ...... END OF TWO-ELECTRON INTEGRALS .....
 CPU     0: STEP CPU TIME=     0.01 TOTAL CPU TIME=        0.3 (    0.0 MIN)
 TOTAL WALL CLOCK TIME=        0.3 SECONDS, CPU UTILIZATION IS  90.00%

          --------------------------
                 RHF SCF CALCULATION
          --------------------------

     NUCLEAR ENERGY =       261.2874125603
     MAXIT =  200     NPUNCH=    2
     EXTRAP=T  DAMP=F  SHIFT=F  RSTRCT=F  DIIS=F  DEM=F  SOSCF=T
     DENSITY MATRIX CONV=  2.00E-06
     SOSCF WILL OPTIMIZE    6500 ORBITAL ROTATIONS, SOGTOL=   0.250
     MEMORY REQUIRED FOR RHF ITERS=    812936 WORDS.

 DIRECT SCF CALCULATION, SCHWRZ=T   FDIFF=F,  DIRTHR=  0.00E+00 NITDIR=10
 SCHWARZ INEQUALITY OVERHEAD:     50871 INTEGRALS, T=        0.01

                                                                                   NONZERO     BLOCKS
 ITER EX DEM     TOTAL ENERGY        E CHANGE  DENSITY CHANGE     ORB. GRAD      INTEGRALS    SKIPPED
   1  0  0     -533.4212995229  -533.4212995229   0.387609408   0.000000000      988542551    3038563
          ---------------START SECOND ORDER SCF---------------
   2  1  0     -534.3564350781    -0.9351355552   0.189342012   0.099281417      978279253    3282095
   3  2  0     -534.3685287143    -0.0120936362   0.104829009   0.093035909      974750553    3322571
   4  3  0     -534.5841830081    -0.2156542939   0.045151915   0.020063973      976133403    3306012
   5  4  0     -534.5922448195    -0.0080618113   0.008638992   0.010293049      976443375    3296006
   6  5  0     -534.5937349513    -0.0014901318   0.002250834   0.001101822      976272785    3298149
   7  6  0     -534.5937791841    -0.0000442329   0.001255822   0.000272600      976258173    3298036
   8  7  0     -534.5937848819    -0.0000056978   0.000273113   0.000101002      976261082    3297869
   9  8  0     -534.5937851405    -0.0000002586   0.000053675   0.000027476      976260086    3297868
  10  9  0     -534.5937851608    -0.0000000203   0.000013463   0.000005246      976260171    3297883
  11 10  0     -534.5937851620    -0.0000000012   0.000002121   0.000001175      976259961    3297883
  12 11  0     -534.5937851620     0.0000000000   0.000000932   0.000000288      976259975    3297879

          -----------------
          DENSITY CONVERGED
          -----------------
     TIME TO FORM FOCK OPERATORS=     112.1 SECONDS (       9.3 SEC/ITER)
     FOCK TIME ON FIRST ITERATION=       9.5, LAST ITERATION=       9.3
     TIME TO SOLVE SCF EQUATIONS=       0.3 SECONDS (       0.0 SEC/ITER)

 FINAL RHF ENERGY IS     -534.5937851620 AFTER  12 ITERATIONS

          ------------
          EIGENVECTORS
          ------------

                      1          2          3          4          5
                  -79.9989   -20.4739   -11.2303   -11.2303   -11.2303
                     A          A          A          A          A   
    1  P  1  S    1.000140   0.000158   0.000001   0.000000   0.000061
    2  P  1  S    0.000190   0.001054   0.000006  -0.000003   0.000471
    3  P  1  S    0.000200   0.001554   0.000010  -0.000006   0.000820
    4  P  1  S   -0.000946  -0.000658  -0.000003   0.000001  -0.000211
    5  P  1  S   -0.000470  -0.000604  -0.000010   0.000006  -0.000847
    6  P  1  X    0.000004  -0.000065   0.000194  -0.000032   0.000015
    7  P  1  Y   -0.000002   0.000041  -0.000031  -0.000194  -0.000012
    8  P  1  Z   -0.000040   0.000687   0.000018   0.000010  -0.000187
    9  P  1  X    0.000006  -0.000175   0.000624  -0.000102   0.000041
   10  P  1  Y   -0.000004   0.000108  -0.000099  -0.000625  -0.000034
   11  P  1  Z   -0.000062   0.001835   0.000059   0.000031  -0.000520
   12  P  1  X   -0.000001   0.000010   0.000043  -0.000007  -0.000003
   13  P  1  Y    0.000001  -0.000006  -0.000007  -0.000043   0.000001
   14  P  1  Z    0.000014  -0.000107   0.000005   0.000002   0.000024
   15  P  1  X   -0.000013   0.000123  -0.000435   0.000071   0.000022
   16  P  1  Y    0.000008  -0.000077   0.000069   0.000437  -0.000008
   17  P  1  Z    0.000140  -0.001296  -0.000048  -0.000018  -0.000173
   18  P  1 XX    0.000008  -0.000324   0.000177  -0.000030   0.000038
   19  P  1 YY    0.000008  -0.000330  -0.000162   0.000038   0.000043
   20  P  1 ZZ   -0.000016   0.000654  -0.000015  -0.000008  -0.000080
   21  P  1 XY    0.000000  -0.000006   0.000027   0.000182   0.000002
   22  P  1 XZ    0.000003  -0.000108  -0.000064  -0.000001   0.000014
   23  P  1 YZ   -0.000002   0.000067   0.000027   0.000097  -0.000008
   24  P  1 XX   -0.000003  -0.000428  -0.000038   0.000007   0.000057
   25  P  1 YY   -0.000003  -0.000435   0.000133   0.000030   0.000056
   26  P  1 ZZ    0.000006   0.000863  -0.000095  -0.000037  -0.000113
   27  P  1 XY    0.000000  -0.000008  -0.000063  -0.000187   0.000001
   28  P  1 XZ   -0.000001  -0.000143  -0.000521   0.000097   0.000026
   29  P  1 YZ    0.000001   0.000089   0.000067   0.000503  -0.000009
   30  P  1 XXX   0.000005   0.000028  -0.000020   0.000003   0.000036
   31  P  1 YYY   0.000000  -0.000058  -0.000006   0.000011  -0.000004
   32  P  1 ZZZ  -0.000003   0.000652   0.000005   0.000000   0.000041
   33  P  1 XXY   0.000000  -0.000027   0.000002  -0.000006  -0.000001
   34  P  1 XXZ   0.000003  -0.000440   0.000047  -0.000008  -0.000024
   35  P  1 YYX  -0.000007   0.000132   0.000001   0.000007  -0.000037
   36  P  1 YYZ   0.000001  -0.000435  -0.000054   0.000008  -0.000031
   37  P  1 ZZX   0.000001  -0.000170   0.000026  -0.000011  -0.000011
   38  P  1 ZZY   0.000000   0.000104   0.000006  -0.000008   0.000007
   39  P  1 XYZ   0.000001  -0.000021   0.000013   0.000063   0.000002
   40  P  1 XX   -0.000001   0.000043   0.000002   0.000000   0.000000
   41  P  1 YY   -0.000001   0.000043   0.000001   0.000001   0.000000
   42  P  1 ZZ    0.000003  -0.000086  -0.000002  -0.000001   0.000000
   43  P  1 XY    0.000000   0.000001  -0.000001  -0.000001   0.000000
   44  P  1 XZ    0.000000   0.000014  -0.000012   0.000002   0.000000
   45  P  1 YZ    0.000000  -0.000009   0.000002   0.000012   0.000000
   46  O  2  S    0.000000   0.975525   0.000001   0.000000   0.000057
   47  O  2  S   -0.000004  -0.001369   0.000001  -0.000001   0.000089
   48  O  2  S   -0.000007   0.043433   0.000000   0.000000  -0.000020
   49  O  2  S    0.000014   0.002731   0.000002  -0.000001   0.000136
   50  O  2  X   -0.000001   0.000164  -0.000007   0.000001  -0.000002
   51  O  2  Y    0.000000  -0.000102   0.000001   0.000007   0.000001
   52  O  2  Z    0.000007  -0.001719  -0.000001   0.000000   0.000018
   53  O  2  X    0.000000  -0.000162  -0.000004   0.000001   0.000005
   54  O  2  Y    0.000000   0.000101   0.000001   0.000004  -0.000003
   55  O  2  Z   -0.000005   0.001700  -0.000001   0.000000  -0.000051
   56  O  2  X    0.000001   0.000015   0.000053  -0.000009  -0.000011
   57  O  2  Y   -0.000001  -0.000009  -0.000008  -0.000054   0.000006
   58  O  2  Z   -0.000014  -0.000155   0.000007   0.000002   0.000103
   59  O  2 XX    0.000001  -0.000053   0.000016  -0.000003  -0.000004
   60  O  2 YY    0.000001  -0.000053  -0.000014   0.000004  -0.000004
   61  O  2 ZZ   -0.000002   0.000106  -0.000002  -0.000001   0.000008
   62  O  2 XY    0.000000  -0.000001   0.000002   0.000015   0.000000
   63  O  2 XZ    0.000000  -0.000018  -0.000009   0.000001  -0.000001
   64  O  2 YZ    0.000000   0.000011   0.000003   0.000012   0.000001
   65  O  2 XX   -0.000008   0.000261  -0.000054   0.000009   0.000013
   66  O  2 YY   -0.000008   0.000266   0.000048  -0.000013   0.000012
   67  O  2 ZZ    0.000016  -0.000527   0.000006   0.000004  -0.000025
   68  O  2 XY    0.000000   0.000005  -0.000007  -0.000053   0.000000
   69  O  2 XZ   -0.000003   0.000087   0.000032  -0.000002   0.000004
   70  O  2 YZ    0.000002  -0.000054  -0.000010  -0.000041  -0.000003
   71  O  2 XXX  -0.000002   0.000010   0.000004  -0.000001  -0.000004
   72  O  2 YYY   0.000001  -0.000007  -0.000003  -0.000006   0.000000
   73  O  2 ZZZ  -0.000009   0.000080  -0.000003  -0.000002  -0.000003
   74  O  2 XXY   0.000000  -0.000003   0.000000  -0.000006   0.000000
   75  O  2 XXZ   0.000006  -0.000053   0.000016  -0.000002   0.000001
   76  O  2 YYX   0.000000   0.000007   0.000005   0.000001   0.000004
   77  O  2 YYZ   0.000006  -0.000054  -0.000013   0.000005   0.000002
   78  O  2 ZZX   0.000002  -0.000021  -0.000010   0.000000   0.000001
   79  O  2 ZZY  -0.000002   0.000013   0.000004   0.000014   0.000000
   80  O  2 XYZ   0.000000  -0.000002   0.000001   0.000014   0.000000
   81  C  3  S   -0.000007  -0.000084  -0.500479  -0.620913   0.566862
   82  C  3  S   -0.000014  -0.000170  -0.000839  -0.001043   0.001074
   83  C  3  S    0.000005  -0.000003  -0.021231  -0.026341   0.024092
   84  C  3  S    0.000118  -0.000389  -0.004130  -0.005096   0.003381
   85  C  3  X    0.000001  -0.000005  -0.000012   0.000000   0.000005
   86  C  3  Y   -0.000001   0.000010   0.000001   0.000010  -0.000005
   87  C  3  Z   -0.000001  -0.000014   0.000030   0.000038  -0.000029
   88  C  3  X   -0.000021   0.000068   0.000532   0.000198  -0.000296
   89  C  3  Y    0.000037  -0.000112  -0.000426  -0.000797   0.000537
   90  C  3  Z   -0.000005  -0.000029   0.000328   0.000380  -0.000412
   91  C  3  X    0.000019  -0.000047  -0.000401   0.000037  -0.000035
   92  C  3  Y   -0.000034   0.000059   0.000084   0.000408   0.000061
   93  C  3  Z    0.000007   0.000211   0.000086   0.000134   0.000094
   94  C  3 XX    0.000001  -0.000011   0.000002  -0.000062   0.000042
   95  C  3 YY   -0.000001  -0.000004   0.000033   0.000106  -0.000063
   96  C  3 ZZ    0.000000   0.000014  -0.000035  -0.000044   0.000022
   97  C  3 XY    0.000002  -0.000008  -0.000107  -0.000089   0.000096
   98  C  3 XZ   -0.000001  -0.000008   0.000059   0.000058  -0.000066
   99  C  3 YZ    0.000002   0.000009  -0.000091  -0.000116   0.000119
  100  C  3 XX    0.000007  -0.000037  -0.000439   0.000226   0.000013
  101  C  3 YY    0.000004   0.000016   0.000499  -0.000143  -0.000216
  102  C  3 ZZ   -0.000010   0.000021  -0.000061  -0.000083   0.000203
  103  C  3 XY    0.000004  -0.000049   0.000058  -0.000417   0.000196
  104  C  3 XZ    0.000003   0.000024   0.000115   0.000123  -0.000113
  105  C  3 YZ   -0.000003  -0.000051  -0.000155  -0.000264   0.000179
  106  C  3 XXX  -0.000002  -0.000018   0.000281   0.000341  -0.000294
  107  C  3 YYY  -0.000001   0.000036  -0.000100  -0.000066   0.000088
  108  C  3 ZZZ  -0.000002   0.000047   0.000299   0.000372  -0.000317
  109  C  3 XXY   0.000000   0.000016   0.000021  -0.000051   0.000022
  110  C  3 XXZ  -0.000002  -0.000038  -0.000237  -0.000241   0.000224
  111  C  3 YYX   0.000004  -0.000005  -0.000250  -0.000308   0.000251
  112  C  3 YYZ   0.000004  -0.000025  -0.000164  -0.000258   0.000202
  113  C  3 ZZX  -0.000001   0.000030  -0.000127  -0.000149   0.000143
  114  C  3 ZZY   0.000001  -0.000065   0.000114   0.000139  -0.000140
  115  C  3 XYZ  -0.000006  -0.000002  -0.000061  -0.000117   0.000088
  116  C  4  S   -0.000007  -0.000084  -0.273785   0.744042   0.573400
  117  C  4  S   -0.000014  -0.000170  -0.000458   0.001248   0.001085
  118  C  4  S    0.000005  -0.000003  -0.011614   0.031563   0.024370
  119  C  4  S    0.000118  -0.000389  -0.002267   0.006126   0.003435
  120  C  4  X    0.000001  -0.000005  -0.000011   0.000004   0.000005
  121  C  4  Y    0.000001  -0.000012   0.000004   0.000004   0.000002
  122  C  4  Z   -0.000001  -0.000013   0.000016  -0.000046  -0.000030
  123  C  4  X   -0.000021   0.000067   0.000440  -0.000352  -0.000296
  124  C  4  Y   -0.000037   0.000108   0.000169  -0.000937  -0.000592
  125  C  4  Z   -0.000001  -0.000042   0.000169  -0.000353  -0.000349
  126  C  4  X    0.000019  -0.000047  -0.000391   0.000093  -0.000035
  127  C  4  Y    0.000034  -0.000034   0.000055   0.000393  -0.000046
  128  C  4  Z    0.000003   0.000217   0.000031  -0.000203   0.000098
  129  C  4 XX    0.000001  -0.000011   0.000021   0.000059   0.000043
  130  C  4 YY   -0.000002  -0.000005   0.000007  -0.000137  -0.000088
  131  C  4 ZZ    0.000001   0.000016  -0.000028   0.000079   0.000045
  132  C  4 XY   -0.000003   0.000007   0.000076  -0.000125  -0.000103
  133  C  4 XZ   -0.000001  -0.000008   0.000028  -0.000059  -0.000054
  134  C  4 YZ   -0.000002  -0.000007   0.000045  -0.000112  -0.000105
  135  C  4 XX    0.000007  -0.000037  -0.000487  -0.000069   0.000013
  136  C  4 YY    0.000004   0.000027   0.000522  -0.000086  -0.000248
  137  C  4 ZZ   -0.000011   0.000011  -0.000036   0.000155   0.000235
  138  C  4 XY   -0.000003   0.000051  -0.000186  -0.000390  -0.000211
  139  C  4 XZ    0.000004   0.000018   0.000091  -0.000106  -0.000089
  140  C  4 YZ    0.000001   0.000051  -0.000014  -0.000274  -0.000120
  141  C  4 XXX  -0.000002  -0.000018   0.000157  -0.000411  -0.000297
  142  C  4 YYY   0.000002  -0.000040   0.000050  -0.000007  -0.000028
  143  C  4 ZZZ  -0.000001   0.000028   0.000174  -0.000470  -0.000345
  144  C  4 XXY   0.000000  -0.000021  -0.000051  -0.000011   0.000000
  145  C  4 XXZ  -0.000002  -0.000035  -0.000142   0.000307   0.000229
  146  C  4 YYX   0.000005  -0.000004  -0.000133   0.000341   0.000235
  147  C  4 YYZ   0.000004  -0.000002  -0.000092   0.000325   0.000234
  148  C  4 ZZX  -0.000002   0.000029  -0.000077   0.000209   0.000164
  149  C  4 ZZY  -0.000002   0.000074  -0.000017   0.000020   0.000037
  150  C  4 XYZ   0.000006   0.000006   0.000028  -0.000151  -0.000101
  151  C  5  S   -0.000007  -0.000084   0.794877  -0.134671   0.554417
  152  C  5  S   -0.000014  -0.000170   0.001336  -0.000227   0.001054
  153  C  5  S    0.000005  -0.000003   0.033721  -0.005713   0.023564
  154  C  5  S    0.000118  -0.000389   0.006520  -0.001099   0.003279
  155  C  5  X   -0.000001   0.000014  -0.000002   0.000000  -0.000001
  156  C  5  Y    0.000000  -0.000001  -0.000001   0.000011  -0.000002
  157  C  5  Z   -0.000001  -0.000012  -0.000050   0.000008  -0.000029
  158  C  5  X    0.000042  -0.000123   0.001086  -0.000183   0.000664
  159  C  5  Y    0.000000  -0.000003  -0.000070  -0.000329  -0.000017
  160  C  5  Z    0.000003  -0.000054  -0.000295   0.000070  -0.000282
  161  C  5  X   -0.000040   0.000033  -0.000388   0.000063   0.000057
  162  C  5  Y    0.000000   0.000013   0.000048   0.000383   0.000008
  163  C  5  Z   -0.000001   0.000221  -0.000237   0.000016   0.000109
  164  C  5 XX   -0.000003  -0.000003  -0.000214   0.000036  -0.000145
  165  C  5 YY    0.000002  -0.000015   0.000112  -0.000019   0.000086
  166  C  5 ZZ    0.000001   0.000018   0.000102  -0.000017   0.000060
  167  C  5 XY    0.000000   0.000001   0.000014   0.000053   0.000005
  168  C  5 XZ    0.000002   0.000008   0.000107  -0.000022   0.000096
  169  C  5 YZ    0.000000   0.000002   0.000000   0.000001  -0.000002
  170  C  5 XX    0.000003   0.000057  -0.000438   0.000077  -0.000349
  171  C  5 YY    0.000009  -0.000060   0.000236  -0.000058   0.000099
  172  C  5 ZZ   -0.000011   0.000003   0.000202  -0.000019   0.000251
  173  C  5 XY    0.000000  -0.000003  -0.000090  -0.000610   0.000001
  174  C  5 XZ   -0.000002  -0.000049   0.000228  -0.000001   0.000083
  175  C  5 YZ   -0.000001   0.000004  -0.000027  -0.000152   0.000010
  176  C  5 XXX  -0.000007   0.000041  -0.000285   0.000048  -0.000167
  177  C  5 YYY  -0.000001  -0.000004   0.000065  -0.000050   0.000046
  178  C  5 ZZZ  -0.000001   0.000013  -0.000536   0.000092  -0.000360
  179  C  5 XXY   0.000000   0.000001   0.000019   0.000058   0.000007
  180  C  5 XXZ   0.000005   0.000014   0.000208  -0.000039   0.000149
  181  C  5 YYX   0.000004   0.000026   0.000415  -0.000073   0.000267
  182  C  5 YYZ  -0.000004  -0.000031   0.000511  -0.000085   0.000334
  183  C  5 ZZX   0.000004  -0.000081  -0.000033   0.000009  -0.000043
  184  C  5 ZZY   0.000000   0.000005  -0.000106   0.000008  -0.000069
  185  C  5 XYZ   0.000000  -0.000007  -0.000037  -0.000028  -0.000022
  186  H  6  S    0.000000  -0.000030  -0.000079  -0.000146   0.000116
  187  H  6  S   -0.000019   0.000227   0.001141   0.000670  -0.000617
  188  H  6  S    0.000005   0.000083   0.000181   0.000630  -0.000445
  189  H  6  X   -0.000001  -0.000004   0.000187   0.000212  -0.000188
  190  H  6  Y   -0.000001   0.000020  -0.000004  -0.000001  -0.000006
  191  H  6  Z    0.000000  -0.000005  -0.000034  -0.000045   0.000049
  192  H  6  X   -0.000007   0.000146   0.000465   0.000283  -0.000306
  193  H  6  Y   -0.000006  -0.000095  -0.000020  -0.000141   0.000086
  194  H  6  Z    0.000010   0.000034  -0.000130  -0.000028   0.000010
  195  H  6 XX   -0.000001   0.000021   0.000157   0.000181  -0.000172
  196  H  6 YY    0.000002  -0.000009  -0.000090  -0.000090   0.000090
  197  H  6 ZZ    0.000000  -0.000012  -0.000067  -0.000091   0.000082
  198  H  6 XY   -0.000003  -0.000018  -0.000020  -0.000027   0.000028
  199  H  6 XZ    0.000003   0.000017  -0.000059  -0.000064   0.000059
  200  H  6 YZ   -0.000001  -0.000005   0.000002   0.000010  -0.000002
  201  H  7  S   -0.000001   0.000020  -0.000121  -0.000149   0.000111
  202  H  7  S    0.000009   0.000021   0.000910   0.001125  -0.000825
  203  H  7  S    0.000005   0.000007   0.000573   0.000705  -0.000366
  204  H  7  X   -0.000001   0.000005  -0.000020  -0.000027   0.000034
  205  H  7  Y    0.000001  -0.000010   0.000017   0.000021  -0.000038
  206  H  7  Z    0.000000   0.000010   0.000180   0.000223  -0.000196
  207  H  7  X    0.000009  -0.000063   0.000009  -0.000032  -0.000001
  208  H  7  Y   -0.000017   0.000111  -0.000005  -0.000033   0.000043
  209  H  7  Z    0.000006  -0.000032   0.000374   0.000461  -0.000408
  210  H  7 XX   -0.000001   0.000006  -0.000072  -0.000110   0.000098
  211  H  7 YY    0.000001  -0.000003  -0.000095  -0.000097   0.000096
  212  H  7 ZZ    0.000001  -0.000003   0.000167   0.000207  -0.000194
  213  H  7 XY   -0.000001   0.000005  -0.000006   0.000005   0.000005
  214  H  7 XZ    0.000003  -0.000018  -0.000028  -0.000034   0.000028
  215  H  7 YZ   -0.000005   0.000033   0.000017   0.000022  -0.000012
  216  H  8  S    0.000000  -0.000030  -0.000125  -0.000107   0.000117
  217  H  8  S   -0.000019   0.000227   0.000424   0.001259  -0.000604
  218  H  8  S    0.000005   0.000083   0.000573   0.000307  -0.000452
  219  H  8  X    0.000001  -0.000015  -0.000077  -0.000102   0.000091
  220  H  8  Y    0.000000   0.000014  -0.000144  -0.000198   0.000158
  221  H  8  Z    0.000000  -0.000005  -0.000051  -0.000063   0.000066
  222  H  8  X    0.000008   0.000010   0.000028  -0.000195   0.000068
  223  H  8  Y    0.000003  -0.000175  -0.000223  -0.000466   0.000305
  224  H  8  Z    0.000011   0.000026  -0.000011  -0.000177   0.000030
  225  H  8 XX   -0.000001  -0.000014  -0.000038  -0.000061   0.000053
  226  H  8 YY    0.000002   0.000029   0.000104   0.000133  -0.000124
  227  H  8 ZZ   -0.000001  -0.000014  -0.000066  -0.000072   0.000071
  228  H  8 XY   -0.000002   0.000007   0.000087   0.000125  -0.000106
  229  H  8 XZ   -0.000001  -0.000004   0.000024   0.000040  -0.000035
  230  H  8 YZ   -0.000003  -0.000014   0.000067   0.000089  -0.000075
  231  H  9  S    0.000000  -0.000030  -0.000084   0.000141   0.000118
  232  H  9  S   -0.000019   0.000227  -0.000005  -0.001323  -0.000616
  233  H  9  S    0.000005   0.000083   0.000444  -0.000472  -0.000455
  234  H  9  X    0.000001  -0.000015  -0.000040   0.000122   0.000093
  235  H  9  Y    0.000000  -0.000014   0.000069  -0.000222  -0.000150
  236  H  9  Z    0.000000  -0.000004  -0.000036   0.000102   0.000085
  237  H  9  X    0.000008   0.000009   0.000089   0.000178   0.000072
  238  H  9  Y   -0.000001   0.000177   0.000066  -0.000486  -0.000303
  239  H  9  Z    0.000011   0.000005   0.000039   0.000230   0.000068
  240  H  9 XX   -0.000001  -0.000014  -0.000016   0.000068   0.000053
  241  H  9 YY    0.000002   0.000031   0.000047  -0.000133  -0.000107
  242  H  9 ZZ   -0.000001  -0.000016  -0.000031   0.000064   0.000054
  243  H  9 XY    0.000002  -0.000008  -0.000041   0.000140   0.000103
  244  H  9 XZ   -0.000001  -0.000003   0.000015  -0.000063  -0.000049
  245  H  9 YZ    0.000002   0.000008  -0.000047   0.000135   0.000100
  246  H 10  S   -0.000001   0.000020  -0.000066   0.000179   0.000113
  247  H 10  S    0.000009   0.000021   0.000499  -0.001351  -0.000837
  248  H 10  S    0.000005   0.000007   0.000315  -0.000849  -0.000373
  249  H 10  X   -0.000001   0.000005  -0.000011   0.000031   0.000034
  250  H 10  Y   -0.000001   0.000011   0.000002  -0.000006   0.000014
  251  H 10  Z    0.000001   0.000009   0.000099  -0.000268  -0.000201
  252  H 10  X    0.000009  -0.000063   0.000019   0.000028   0.000000
  253  H 10  Y    0.000017  -0.000114   0.000019  -0.000097  -0.000092
  254  H 10  Z    0.000004  -0.000019   0.000205  -0.000546  -0.000405
  255  H 10 XX   -0.000001   0.000006  -0.000032   0.000127   0.000099
  256  H 10 YY    0.000002  -0.000010  -0.000059   0.000122   0.000095
  257  H 10 ZZ    0.000000   0.000003   0.000091  -0.000249  -0.000195
  258  H 10 XY    0.000002  -0.000007   0.000006   0.000008  -0.000002
  259  H 10 XZ    0.000002  -0.000017  -0.000016   0.000040   0.000029
  260  H 10 YZ    0.000005  -0.000032   0.000012  -0.000024  -0.000027
  261  H 11  S    0.000000  -0.000030  -0.000028   0.000162   0.000118
  262  H 11  S   -0.000019   0.000227   0.000864  -0.000997  -0.000625
  263  H 11  S    0.000005   0.000083  -0.000032  -0.000650  -0.000451
  264  H 11  X   -0.000001  -0.000004   0.000109  -0.000259  -0.000190
  265  H 11  Y    0.000001  -0.000021   0.000002   0.000002   0.000011
  266  H 11  Z    0.000000  -0.000002  -0.000018   0.000053   0.000048
  267  H 11  X   -0.000007   0.000145   0.000349  -0.000415  -0.000309
  268  H 11  Y    0.000007   0.000099  -0.000039  -0.000132  -0.000087
  269  H 11  Z    0.000009   0.000023  -0.000110   0.000085   0.000021
  270  H 11 XX   -0.000001   0.000021   0.000090  -0.000220  -0.000173
  271  H 11 YY    0.000002  -0.000008  -0.000056   0.000116   0.000091
  272  H 11 ZZ   -0.000001  -0.000013  -0.000035   0.000105   0.000082
  273  H 11 XY    0.000003   0.000020   0.000007  -0.000024  -0.000022
  274  H 11 XZ    0.000003   0.000015  -0.000036   0.000082   0.000063
  275  H 11 YZ    0.000000   0.000005   0.000004   0.000009   0.000001
  276  H 12  S    0.000000  -0.000030   0.000157  -0.000057   0.000114
  277  H 12  S   -0.000019   0.000227  -0.001310  -0.000250  -0.000593
  278  H 12  S    0.000005   0.000083  -0.000558   0.000352  -0.000438
  279  H 12  X    0.000000   0.000020   0.000132  -0.000013   0.000075
  280  H 12  Y   -0.000001   0.000006  -0.000233   0.000029  -0.000154
  281  H 12  Z    0.000000  -0.000002   0.000109  -0.000017   0.000081
  282  H 12  X   -0.000004  -0.000159   0.000336  -0.000045   0.000216
  283  H 12  Y   -0.000008   0.000079  -0.000391  -0.000121  -0.000208
  284  H 12  Z    0.000010  -0.000005   0.000230   0.000071   0.000074
  285  H 12 XX    0.000004   0.000015   0.000032   0.000003   0.000016
  286  H 12 YY   -0.000002   0.000002  -0.000099   0.000014  -0.000067
  287  H 12 ZZ   -0.000001  -0.000017   0.000068  -0.000017   0.000051
  288  H 12 XY   -0.000001  -0.000027   0.000175  -0.000020   0.000124
  289  H 12 XZ   -0.000001  -0.000004  -0.000089   0.000018  -0.000059
  290  H 12 YZ    0.000002   0.000005   0.000133  -0.000014   0.000093
  291  H 13  S    0.000000  -0.000030   0.000167   0.000002   0.000114
  292  H 13  S   -0.000019   0.000227  -0.001158   0.000665  -0.000589
  293  H 13  S    0.000005   0.000083  -0.000641  -0.000149  -0.000440
  294  H 13  X    0.000000   0.000020   0.000128  -0.000030   0.000075
  295  H 13  Y    0.000001  -0.000007   0.000241  -0.000051   0.000162
  296  H 13  Z    0.000000  -0.000001   0.000081  -0.000014   0.000062
  297  H 13  X   -0.000004  -0.000159   0.000330  -0.000067   0.000215
  298  H 13  Y    0.000009  -0.000079   0.000353  -0.000259   0.000214
  299  H 13  Z    0.000009   0.000004   0.000154  -0.000113   0.000048
  300  H 13 XX    0.000004   0.000015   0.000030  -0.000013   0.000017
  301  H 13 YY   -0.000003   0.000001  -0.000124   0.000025  -0.000086
  302  H 13 ZZ   -0.000001  -0.000015   0.000094  -0.000012   0.000068
  303  H 13 XY    0.000001   0.000026  -0.000181   0.000040  -0.000129
  304  H 13 XZ   -0.000001  -0.000007  -0.000069   0.000008  -0.000044
  305  H 13 YZ   -0.000002  -0.000007  -0.000104   0.000027  -0.000074
  306  H 14  S   -0.000001   0.000020   0.000191  -0.000032   0.000108
  307  H 14  S    0.000009   0.000021  -0.001440   0.000243  -0.000802
  308  H 14  S    0.000005   0.000007  -0.000901   0.000151  -0.000352
  309  H 14  X    0.000001  -0.000013   0.000015  -0.000002  -0.000011
  310  H 14  Y    0.000000   0.000000  -0.000017   0.000002  -0.000012
  311  H 14  Z    0.000001   0.000008  -0.000287   0.000049  -0.000197
  312  H 14  X   -0.000020   0.000131   0.000129  -0.000022   0.000113
  313  H 14  Y    0.000000   0.000000  -0.000039  -0.000025  -0.000023
  314  H 14  Z    0.000002  -0.000007  -0.000577   0.000100  -0.000384
  315  H 14 XX    0.000003  -0.000017   0.000134  -0.000023   0.000088
  316  H 14 YY   -0.000002   0.000008   0.000131  -0.000022   0.000099
  317  H 14 ZZ   -0.000001   0.000009  -0.000265   0.000045  -0.000187
  318  H 14 XY    0.000000   0.000002   0.000005   0.000016   0.000002
  319  H 14 XZ   -0.000005   0.000034   0.000044  -0.000009   0.000039
  320  H 14 YZ    0.000000   0.000000  -0.000026   0.000009  -0.000020

                      6          7          8          9         10
                   -7.5298    -5.4266    -5.4266    -5.4256    -1.2729
                     A          A          A          A          A   
    1  P  1  S   -0.000440   0.000000   0.000000   0.000063  -0.000727
    2  P  1  S    0.954067   0.000000   0.000000   0.002060  -0.017672
    3  P  1  S   -0.002056   0.000000   0.000000  -0.000040   0.222365
    4  P  1  S    0.062484   0.000000   0.000000  -0.000441   0.022814
    5  P  1  S    0.006158   0.000000   0.000000  -0.002606   0.049124
    6  P  1  X    0.000159   0.305960   0.904626  -0.090660   0.003404
    7  P  1  Y   -0.000099   0.908826  -0.301732   0.056340  -0.002116
    8  P  1  Z   -0.001668  -0.024617   0.103875   0.953199  -0.035794
    9  P  1  X   -0.000020  -0.000784  -0.002318   0.000242  -0.009930
   10  P  1  Y    0.000012  -0.002328   0.000773  -0.000150   0.006171
   11  P  1  Z    0.000211   0.000063  -0.000266  -0.002544   0.104403
   12  P  1  X    0.000062   0.024855   0.073487  -0.007316  -0.004029
   13  P  1  Y   -0.000038   0.073828  -0.024511   0.004546   0.002504
   14  P  1  Z   -0.000649  -0.002000   0.008438   0.076918   0.042360
   15  P  1  X    0.000149  -0.000020  -0.000060  -0.000121  -0.001498
   16  P  1  Y   -0.000092  -0.000060   0.000020   0.000075   0.000931
   17  P  1  Z   -0.001564   0.000002  -0.000007   0.001271   0.015755
   18  P  1 XX    0.000045   0.000117   0.000341  -0.000076  -0.019504
   19  P  1 YY    0.000046  -0.000151  -0.000215  -0.000077  -0.019834
   20  P  1 ZZ   -0.000090   0.000033  -0.000126   0.000153   0.039338
   21  P  1 XY    0.000001  -0.000225   0.000039  -0.000002  -0.000385
   22  P  1 XZ    0.000015  -0.000192  -0.000610  -0.000025  -0.006521
   23  P  1 YZ   -0.000009  -0.000659   0.000233   0.000016   0.004053
   24  P  1 XX    0.000044  -0.000312  -0.000905   0.000441  -0.013831
   25  P  1 YY    0.000045   0.000388   0.000623   0.000448  -0.014065
   26  P  1 ZZ   -0.000090  -0.000076   0.000282  -0.000889   0.027895
   27  P  1 XY    0.000001   0.000668  -0.000144   0.000009  -0.000273
   28  P  1 XZ    0.000015   0.000414   0.001351   0.000147  -0.004624
   29  P  1 YZ   -0.000009   0.001485  -0.000537  -0.000092   0.002874
   30  P  1 XXX   0.000193  -0.000004  -0.000013  -0.000112   0.004431
   31  P  1 YYY  -0.000033  -0.000018   0.000010   0.000011  -0.001641
   32  P  1 ZZZ   0.000322  -0.000003   0.000009  -0.000091   0.017534
   33  P  1 XXY  -0.000010  -0.000015   0.000003   0.000002  -0.000652
   34  P  1 XXZ  -0.000194  -0.000012  -0.000039   0.000048  -0.011357
   35  P  1 YYX  -0.000176  -0.000001  -0.000013   0.000127  -0.001412
   36  P  1 YYZ  -0.000237   0.000016   0.000027   0.000074  -0.012167
   37  P  1 ZZX  -0.000082   0.000007   0.000030   0.000023  -0.004533
   38  P  1 ZZY   0.000054   0.000039  -0.000017  -0.000016   0.002854
   39  P  1 XYZ   0.000007   0.000030  -0.000007  -0.000007  -0.000212
   40  P  1 XX    0.000157  -0.000112  -0.000324   0.000500  -0.003998
   41  P  1 YY    0.000160   0.000114   0.000337   0.000509  -0.004066
   42  P  1 ZZ   -0.000317  -0.000002  -0.000013  -0.001009   0.008064
   43  P  1 XY    0.000003   0.000391  -0.000142   0.000010  -0.000079
   44  P  1 XZ    0.000053  -0.000056  -0.000089   0.000167  -0.001337
   45  P  1 YZ   -0.000033  -0.000032  -0.000016  -0.000104   0.000831
   46  O  2  S   -0.000102   0.000000   0.000000  -0.000336  -0.009317
   47  O  2  S    0.000579   0.000000   0.000000   0.001884   0.472142
   48  O  2  S    0.000040   0.000000   0.000000   0.000402   0.121385
   49  O  2  S    0.000489   0.000000   0.000000   0.003609   0.258018
   50  O  2  X    0.000030   0.000083   0.000246   0.000109   0.005392
   51  O  2  Y   -0.000019   0.000247  -0.000082  -0.000067  -0.003351
   52  O  2  Z   -0.000317  -0.000007   0.000028  -0.001142  -0.056687
   53  O  2  X    0.000066   0.000162   0.000480   0.000203   0.007599
   54  O  2  Y   -0.000041   0.000482  -0.000160  -0.000126  -0.004722
   55  O  2  Z   -0.000698  -0.000013   0.000055  -0.002137  -0.079889
   56  O  2  X    0.000027  -0.000017  -0.000051   0.000182   0.001206
   57  O  2  Y   -0.000017  -0.000051   0.000017  -0.000113  -0.000749
   58  O  2  Z   -0.000280   0.000001  -0.000006  -0.001915  -0.012679
   59  O  2 XX   -0.000032   0.000000   0.000002  -0.000091  -0.002397
   60  O  2 YY   -0.000032  -0.000004   0.000016  -0.000092  -0.002438
   61  O  2 ZZ    0.000064   0.000004  -0.000017   0.000183   0.004835
   62  O  2 XY   -0.000001   0.000021  -0.000013  -0.000002  -0.000047
   63  O  2 XZ   -0.000011  -0.000031  -0.000087  -0.000030  -0.000802
   64  O  2 YZ    0.000007  -0.000086   0.000027   0.000019   0.000498
   65  O  2 XX   -0.000149   0.000024   0.000071  -0.000354  -0.007365
   66  O  2 YY   -0.000152  -0.000036  -0.000024  -0.000360  -0.007490
   67  O  2 ZZ    0.000301   0.000012  -0.000047   0.000714   0.014855
   68  O  2 XY   -0.000003  -0.000020  -0.000008  -0.000007  -0.000146
   69  O  2 XZ   -0.000050  -0.000077  -0.000230  -0.000118  -0.002463
   70  O  2 YZ    0.000031  -0.000239   0.000080   0.000074   0.001530
   71  O  2 XXX  -0.000032  -0.000013  -0.000039  -0.000048  -0.000662
   72  O  2 YYY   0.000018  -0.000041   0.000014   0.000030   0.000373
   73  O  2 ZZZ  -0.000201  -0.000005   0.000019  -0.000328  -0.004082
   74  O  2 XXY   0.000008  -0.000019   0.000005   0.000013   0.000158
   75  O  2 XXZ   0.000133  -0.000007  -0.000024   0.000217   0.002691
   76  O  2 YYX  -0.000010  -0.000007  -0.000019  -0.000021  -0.000170
   77  O  2 YYZ   0.000137   0.000013  -0.000002   0.000223   0.002786
   78  O  2 ZZX   0.000052   0.000025   0.000071   0.000085   0.001058
   79  O  2 ZZY  -0.000032   0.000074  -0.000024  -0.000053  -0.000659
   80  O  2 XYZ   0.000004  -0.000003   0.000008   0.000007   0.000084
   81  C  3  S   -0.000049  -0.000033   0.000037   0.000032  -0.001823
   82  C  3  S    0.000253   0.000473  -0.000540  -0.000325   0.032106
   83  C  3  S    0.000042   0.000019  -0.000021  -0.000036   0.006241
   84  C  3  S   -0.001437   0.001554  -0.001777   0.000615   0.006784
   85  C  3  X    0.000067   0.000121  -0.000077  -0.000084   0.002930
   86  C  3  Y   -0.000124  -0.000149   0.000207   0.000150  -0.005540
   87  C  3  Z    0.000093   0.000124  -0.000138  -0.000061   0.005409
   88  C  3  X    0.000234   0.000314  -0.000927  -0.000318   0.003998
   89  C  3  Y   -0.000404  -0.001241   0.001085   0.000590  -0.007481
   90  C  3  Z    0.000064   0.000594  -0.000713  -0.000483   0.006625
   91  C  3  X   -0.000261   0.000096  -0.000527   0.000108   0.001205
   92  C  3  Y    0.000463  -0.000661   0.000510  -0.000163  -0.001932
   93  C  3  Z   -0.000186   0.000214  -0.000270  -0.000192  -0.001148
   94  C  3 XX   -0.000019  -0.000025   0.000068   0.000014  -0.000327
   95  C  3 YY    0.000025   0.000024  -0.000068  -0.000062   0.000136
   96  C  3 ZZ   -0.000006   0.000000   0.000001   0.000048   0.000191
   97  C  3 XY   -0.000040  -0.000093   0.000080   0.000073  -0.000397
   98  C  3 XZ    0.000023   0.000060  -0.000056  -0.000027   0.000358
   99  C  3 YZ   -0.000044  -0.000099   0.000117   0.000046  -0.000691
  100  C  3 XX   -0.000059   0.000470   0.000589  -0.000158  -0.000421
  101  C  3 YY   -0.000013  -0.000490  -0.000578  -0.000326   0.000714
  102  C  3 ZZ    0.000072   0.000020  -0.000011   0.000484  -0.000294
  103  C  3 XY   -0.000055  -0.000502  -0.000161   0.000185  -0.001090
  104  C  3 XZ   -0.000045   0.000212  -0.000091   0.000026   0.000382
  105  C  3 YZ    0.000058  -0.000254   0.000289  -0.000109  -0.000729
  106  C  3 XXX   0.000007   0.000034  -0.000061  -0.000015  -0.000714
  107  C  3 YYY   0.000007   0.000018   0.000015   0.000014   0.000519
  108  C  3 ZZZ   0.000016   0.000032  -0.000033  -0.000032  -0.000090
  109  C  3 XXY  -0.000001  -0.000035  -0.000017   0.000012   0.000237
  110  C  3 XXZ   0.000010   0.000055   0.000002  -0.000009  -0.000129
  111  C  3 YYX  -0.000018  -0.000064   0.000069   0.000004   0.000421
  112  C  3 YYZ  -0.000031  -0.000098   0.000042   0.000052   0.000249
  113  C  3 ZZX   0.000008   0.000018   0.000013   0.000016   0.000537
  114  C  3 ZZY  -0.000009   0.000011  -0.000003  -0.000031  -0.000933
  115  C  3 XYZ   0.000043   0.000056  -0.000114  -0.000056  -0.000156
  116  C  4  S   -0.000049   0.000048   0.000010   0.000032  -0.001823
  117  C  4  S    0.000253  -0.000704  -0.000139  -0.000325   0.032106
  118  C  4  S    0.000042  -0.000028  -0.000005  -0.000036   0.006241
  119  C  4  S   -0.001437  -0.002316  -0.000458   0.000615   0.006784
  120  C  4  X    0.000066  -0.000142   0.000013  -0.000084   0.002901
  121  C  4  Y    0.000134  -0.000265  -0.000076  -0.000156   0.006155
  122  C  4  Z    0.000078  -0.000152  -0.000025  -0.000043   0.004715
  123  C  4  X    0.000232  -0.000806  -0.000541  -0.000315   0.003959
  124  C  4  Y    0.000410  -0.001745  -0.000127  -0.000645   0.008231
  125  C  4  Z    0.000016  -0.000704  -0.000188  -0.000410   0.005693
  126  C  4  X   -0.000259  -0.000394  -0.000359   0.000107   0.001196
  127  C  4  Y   -0.000483  -0.000870  -0.000012   0.000140   0.001789
  128  C  4  Z   -0.000130  -0.000233  -0.000082  -0.000210  -0.001368
  129  C  4 XX   -0.000020   0.000062   0.000039   0.000014  -0.000331
  130  C  4 YY    0.000034  -0.000092  -0.000046  -0.000070   0.000281
  131  C  4 ZZ   -0.000014   0.000030   0.000007   0.000056   0.000050
  132  C  4 XY    0.000043  -0.000130  -0.000007  -0.000075   0.000433
  133  C  4 XZ    0.000018  -0.000066  -0.000006  -0.000018   0.000305
  134  C  4 YZ    0.000039  -0.000138  -0.000026  -0.000029   0.000681
  135  C  4 XX   -0.000059  -0.000009   0.000749  -0.000157  -0.000431
  136  C  4 YY   -0.000023  -0.000046  -0.000757  -0.000294   0.000858
  137  C  4 ZZ    0.000083   0.000055   0.000008   0.000450  -0.000428
  138  C  4 XY    0.000049  -0.000324   0.000447  -0.000180   0.001121
  139  C  4 XZ   -0.000051  -0.000185   0.000006   0.000047   0.000248
  140  C  4 YZ   -0.000045  -0.000375   0.000031   0.000216   0.000573
  141  C  4 XXX   0.000007  -0.000064  -0.000028  -0.000015  -0.000711
  142  C  4 YYY  -0.000015   0.000033  -0.000029   0.000001  -0.000409
  143  C  4 ZZZ   0.000012  -0.000044  -0.000006  -0.000038  -0.000323
  144  C  4 XXY   0.000002  -0.000023   0.000038  -0.000013  -0.000259
  145  C  4 XXZ   0.000010  -0.000041   0.000030  -0.000008  -0.000101
  146  C  4 YYX  -0.000026   0.000114   0.000028   0.000016   0.000455
  147  C  4 YYZ  -0.000027   0.000100  -0.000022   0.000058   0.000534
  148  C  4 ZZX   0.000016  -0.000028   0.000010   0.000005   0.000500
  149  C  4 ZZY   0.000018  -0.000021   0.000000   0.000012   0.000808
  150  C  4 XYZ  -0.000038   0.000097   0.000055   0.000056   0.000165
  151  C  5  S   -0.000049  -0.000016  -0.000047   0.000032  -0.001823
  152  C  5  S    0.000253   0.000232   0.000680  -0.000325   0.032106
  153  C  5  S    0.000042   0.000009   0.000027  -0.000036   0.006241
  154  C  5  S   -0.001437   0.000762   0.002234   0.000615   0.006784
  155  C  5  X   -0.000156  -0.000103  -0.000302   0.000180  -0.007185
  156  C  5  Y    0.000003   0.000046  -0.000009  -0.000001   0.000226
  157  C  5  Z    0.000064   0.000038   0.000121  -0.000027   0.004107
  158  C  5  X   -0.000471  -0.000648  -0.001903   0.000751  -0.009592
  159  C  5  Y   -0.000003  -0.000401   0.000166  -0.000019   0.000266
  160  C  5  Z   -0.000027   0.000203   0.000514  -0.000346   0.004874
  161  C  5  X    0.000557  -0.000318  -0.000935  -0.000154  -0.002013
  162  C  5  Y   -0.000003  -0.000299   0.000109  -0.000014  -0.000098
  163  C  5  Z   -0.000080   0.000069   0.000143  -0.000226  -0.001562
  164  C  5 XX    0.000059   0.000057   0.000167  -0.000109   0.000567
  165  C  5 YY   -0.000038  -0.000040  -0.000118   0.000049  -0.000509
  166  C  5 ZZ   -0.000020  -0.000017  -0.000049   0.000060  -0.000058
  167  C  5 XY   -0.000002  -0.000037   0.000005   0.000001  -0.000038
  168  C  5 XZ   -0.000035  -0.000041  -0.000127   0.000017  -0.000693
  169  C  5 YZ    0.000001   0.000003   0.000004   0.000001   0.000029
  170  C  5 XX   -0.000005   0.000115   0.000324  -0.000354   0.001460
  171  C  5 YY   -0.000089  -0.000088  -0.000213  -0.000061  -0.000955
  172  C  5 ZZ    0.000094  -0.000027  -0.000112   0.000415  -0.000505
  173  C  5 XY    0.000004  -0.000939   0.000299  -0.000018  -0.000018
  174  C  5 XZ    0.000055  -0.000062  -0.000364  -0.000297  -0.000427
  175  C  5 YZ    0.000013  -0.000096   0.000040   0.000032   0.000030
  176  C  5 XXX   0.000038   0.000041   0.000120  -0.000023  -0.000021
  177  C  5 YYY   0.000004  -0.000034   0.000021  -0.000004   0.000006
  178  C  5 ZZZ   0.000006   0.000011   0.000033  -0.000038  -0.000506
  179  C  5 XXY  -0.000002   0.000045  -0.000022   0.000005   0.000036
  180  C  5 XXZ  -0.000037  -0.000041  -0.000113   0.000083   0.000671
  181  C  5 YYX  -0.000019  -0.000041  -0.000104   0.000024   0.000837
  182  C  5 YYZ   0.000028   0.000027   0.000069  -0.000032   0.000008
  183  C  5 ZZX  -0.000032  -0.000014  -0.000057   0.000006  -0.000808
  184  C  5 ZZY  -0.000003   0.000001  -0.000007   0.000001  -0.000044
  185  C  5 XYZ  -0.000001  -0.000050   0.000020  -0.000001  -0.000111
  186  H  6  S   -0.000027   0.000009  -0.000006   0.000008   0.003949
  187  H  6  S    0.000238  -0.000597  -0.000794   0.000047   0.006013
  188  H  6  S   -0.000075  -0.000088   0.000003   0.000034   0.001037
  189  H  6  X   -0.000006  -0.000005  -0.000006  -0.000001   0.000409
  190  H  6  Y    0.000011   0.000024  -0.000038  -0.000012  -0.000122
  191  H  6  Z   -0.000004  -0.000022   0.000024   0.000005   0.000078
  192  H  6  X    0.000111  -0.000130  -0.000418  -0.000009   0.001249
  193  H  6  Y    0.000001  -0.000045  -0.000125   0.000031  -0.001107
  194  H  6  Z   -0.000064   0.000111   0.000208   0.000006   0.000752
  195  H  6 XX    0.000017   0.000001  -0.000060  -0.000005   0.000155
  196  H  6 YY   -0.000010   0.000022   0.000044   0.000029  -0.000022
  197  H  6 ZZ   -0.000007  -0.000023   0.000016  -0.000025  -0.000133
  198  H  6 XY   -0.000002   0.000012  -0.000033  -0.000007  -0.000294
  199  H  6 XZ   -0.000011  -0.000009   0.000054   0.000003   0.000252
  200  H  6 YZ   -0.000006   0.000004   0.000018   0.000007  -0.000072
  201  H  7  S   -0.000010   0.000019  -0.000022  -0.000005   0.003284
  202  H  7  S   -0.000066  -0.000071   0.000081  -0.000652   0.002236
  203  H  7  S   -0.000106  -0.000080   0.000091  -0.000013  -0.000691
  204  H  7  X    0.000004  -0.000015   0.000016   0.000003  -0.000013
  205  H  7  Y   -0.000006   0.000024  -0.000029  -0.000006  -0.000004
  206  H  7  Z   -0.000012   0.000002  -0.000002   0.000000   0.000253
  207  H  7  X   -0.000078   0.000012   0.000021   0.000159  -0.000406
  208  H  7  Y    0.000137   0.000014   0.000004  -0.000242   0.000699
  209  H  7  Z   -0.000034   0.000053  -0.000058  -0.000273  -0.000076
  210  H  7 XX    0.000004  -0.000039  -0.000022   0.000015  -0.000008
  211  H  7 YY   -0.000004   0.000030   0.000034   0.000021  -0.000018
  212  H  7 ZZ    0.000000   0.000010  -0.000012  -0.000036   0.000026
  213  H  7 XY    0.000005   0.000017   0.000024   0.000000  -0.000023
  214  H  7 XZ   -0.000014  -0.000017   0.000010   0.000033  -0.000161
  215  H  7 YZ    0.000025   0.000018  -0.000021  -0.000050   0.000267
  216  H  8  S   -0.000027   0.000005  -0.000010   0.000008   0.003949
  217  H  8  S    0.000238   0.000866   0.000486   0.000047   0.006013
  218  H  8  S   -0.000075   0.000009   0.000088   0.000034   0.001037
  219  H  8  X   -0.000006  -0.000032   0.000021   0.000011  -0.000097
  220  H  8  Y    0.000010   0.000012  -0.000019  -0.000005  -0.000420
  221  H  8  Z   -0.000004  -0.000023   0.000026   0.000005   0.000047
  222  H  8  X   -0.000049  -0.000301  -0.000052  -0.000023   0.000295
  223  H  8  Y   -0.000093  -0.000301  -0.000046   0.000022  -0.001668
  224  H  8  Z   -0.000074  -0.000265  -0.000090   0.000005   0.000694
  225  H  8 XX   -0.000007  -0.000005  -0.000025   0.000017  -0.000186
  226  H  8 YY    0.000012   0.000008   0.000003   0.000008   0.000351
  227  H  8 ZZ   -0.000005  -0.000003   0.000022  -0.000025  -0.000165
  228  H  8 XY    0.000011   0.000062  -0.000003  -0.000020  -0.000042
  229  H  8 XZ    0.000011   0.000046  -0.000012  -0.000004  -0.000067
  230  H  8 YZ    0.000008   0.000044  -0.000017   0.000001  -0.000230
  231  H  9  S   -0.000027  -0.000010  -0.000005   0.000008   0.003949
  232  H  9  S    0.000238  -0.000389   0.000914   0.000047   0.006013
  233  H  9  S   -0.000075   0.000047   0.000075   0.000034   0.001037
  234  H  9  X   -0.000006   0.000038  -0.000003   0.000011  -0.000099
  235  H  9  Y   -0.000011   0.000025   0.000009   0.000006   0.000422
  236  H  9  Z   -0.000002   0.000032   0.000006   0.000005  -0.000003
  237  H  9  X   -0.000050   0.000207  -0.000227  -0.000023   0.000286
  238  H  9  Y    0.000083  -0.000190   0.000190  -0.000022   0.001739
  239  H  9  Z   -0.000084   0.000178  -0.000258   0.000008   0.000492
  240  H  9 XX   -0.000007  -0.000012  -0.000023   0.000017  -0.000187
  241  H  9 YY    0.000010   0.000005   0.000004   0.000008   0.000391
  242  H  9 ZZ   -0.000003   0.000006   0.000019  -0.000025  -0.000204
  243  H  9 XY   -0.000010   0.000046  -0.000033   0.000020   0.000031
  244  H  9 XZ    0.000013  -0.000049   0.000023  -0.000006  -0.000072
  245  H  9 YZ   -0.000010   0.000046  -0.000012  -0.000006   0.000153
  246  H 10  S   -0.000010  -0.000028  -0.000006  -0.000005   0.003284
  247  H 10  S   -0.000066   0.000105   0.000021  -0.000652   0.002236
  248  H 10  S   -0.000106   0.000118   0.000023  -0.000013  -0.000691
  249  H 10  X    0.000004   0.000022   0.000003   0.000003  -0.000013
  250  H 10  Y    0.000005   0.000036   0.000008   0.000005   0.000034
  251  H 10  Z   -0.000013  -0.000007  -0.000002  -0.000001   0.000251
  252  H 10  X   -0.000078   0.000004   0.000024   0.000158  -0.000403
  253  H 10  Y   -0.000140  -0.000001  -0.000014   0.000209  -0.000705
  254  H 10  Z   -0.000017  -0.000078  -0.000012  -0.000300   0.000008
  255  H 10 XX    0.000004   0.000018  -0.000041   0.000015  -0.000008
  256  H 10 YY   -0.000009   0.000003   0.000045   0.000030  -0.000072
[...]
            226  H  8 YY      0.00086     0.10341
            227  H  8 ZZ      0.00065     0.07417
            228  H  8 XY      0.00026     0.00552
            229  H  8 XZ      0.00065     0.00149
            230  H  8 YZ      0.00000     0.00469
            231  H  9  S      0.25993     0.19207
            232  H  9  S      0.45889     0.25113
            233  H  9  S      0.09999     0.13611
            234  H  9  X      0.00264     0.00375
            235  H  9  Y      0.00537     0.00695
            236  H  9  Z      0.00249     0.00359
            237  H  9  X      0.00774     0.03349
            238  H  9  Y      0.00750     0.04560
            239  H  9  Z      0.00808     0.03233
            240  H  9 XX      0.00054     0.07853
            241  H  9 YY      0.00084     0.09984
            242  H  9 ZZ      0.00060     0.07734
            243  H  9 XY      0.00031     0.00507
            244  H  9 XZ      0.00059     0.00202
            245  H  9 YZ      0.00000     0.00482
            246  H 10  S      0.26070     0.20140
            247  H 10  S      0.46648     0.25584
            248  H 10  S      0.11267     0.13914
            249  H 10  X      0.00177     0.00234
            250  H 10  Y      0.00179     0.00235
            251  H 10  Z      0.00684     0.00994
            252  H 10  X      0.00942     0.03083
            253  H 10  Y      0.01110     0.03289
            254  H 10  Z      0.00172     0.04689
            255  H 10 XX      0.00079     0.07303
            256  H 10 YY      0.00011     0.07241
            257  H 10 ZZ      0.00009     0.11841
            258  H 10 XY      0.00083     0.00017
            259  H 10 XZ      0.00099     0.00504
            260  H 10 YZ      0.00000     0.00522
            261  H 11  S      0.25993     0.19927
            262  H 11  S      0.45889     0.25313
            263  H 11  S      0.09999     0.13579
            264  H 11  X      0.00679     0.00963
            265  H 11  Y      0.00181     0.00237
            266  H 11  Z      0.00189     0.00273
            267  H 11  X      0.00342     0.04650
            268  H 11  Y      0.01065     0.03313
            269  H 11  Z      0.00925     0.03040
            270  H 11 XX      0.00040     0.11560
            271  H 11 YY      0.00060     0.07133
            272  H 11 ZZ      0.00098     0.07420
            273  H 11 XY      0.00079     0.00521
            274  H 11 XZ      0.00012     0.00530
            275  H 11 YZ      0.00000     0.00025
            276  H 12  S      0.25993     0.19145
            277  H 12  S      0.45889     0.25045
            278  H 12  S      0.09999     0.13580
            279  H 12  X      0.00305     0.00451
            280  H 12  Y      0.00495     0.00624
            281  H 12  Z      0.00249     0.00356
            282  H 12  X      0.01072     0.03910
            283  H 12  Y      0.00462     0.04018
            284  H 12  Z      0.00797     0.03204
            285  H 12 XX      0.00054     0.08157
            286  H 12 YY      0.00076     0.09617
            287  H 12 ZZ      0.00069     0.07713
            288  H 12 XY      0.00032     0.00546
            289  H 12 XZ      0.00057     0.00237
            290  H 12 YZ      0.00000     0.00450
            291  H 13  S      0.25993     0.19282
            292  H 13  S      0.45889     0.25093
            293  H 13  S      0.09999     0.13580
            294  H 13  X      0.00303     0.00460
            295  H 13  Y      0.00533     0.00678
            296  H 13  Z      0.00213     0.00303
            297  H 13  X      0.01074     0.03904
            298  H 13  Y      0.00394     0.04136
            299  H 13  Z      0.00864     0.03087
            300  H 13 XX      0.00046     0.08226
            301  H 13 YY      0.00080     0.09964
            302  H 13 ZZ      0.00073     0.07408
            303  H 13 XY      0.00028     0.00593
            304  H 13 XZ      0.00060     0.00181
            305  H 13 YZ      0.00000     0.00437
            306  H 14  S      0.26070     0.20170
            307  H 14  S      0.46648     0.25590
            308  H 14  S      0.11267     0.13911
            309  H 14  X      0.00184     0.00243
            310  H 14  Y      0.00170     0.00220
            311  H 14  Z      0.00686     0.01002
            312  H 14  X      0.01181     0.03405
            313  H 14  Y      0.00906     0.02997
            314  H 14  Z      0.00138     0.04689
            315  H 14 XX      0.00077     0.07286
            316  H 14 YY      0.00011     0.07238
            317  H 14 ZZ      0.00009     0.11883
            318  H 14 XY      0.00104     0.00020
            319  H 14 XZ      0.00080     0.00516
            320  H 14 YZ      0.00000     0.00505

          ----- MULLIKEN ATOMIC OVERLAP POPULATIONS -----
          (OFF-DIAGONAL ELEMENTS NEED TO BE MULTIPLIED BY 2)

             1           2           3           4           5

    1   12.9390634
    2    0.8422746   7.8106066
    3    0.2469059  -0.0597618   5.3171062
    4    0.2469057  -0.0597619  -0.0603208   5.3171065
    5    0.2469052  -0.0597630  -0.0603216  -0.0603212   5.3171087
    6   -0.0216938   0.0005988   0.3689546  -0.0023771   0.0042348
    7    0.0041058   0.0022740   0.3199209   0.0028939   0.0028938
    8   -0.0216913   0.0005992   0.3689510   0.0042353  -0.0023761
    9   -0.0216924   0.0005990   0.0042351   0.3689522  -0.0023763
   10    0.0041059   0.0022741   0.0028939   0.3199209   0.0028938
   11   -0.0216928   0.0005990  -0.0023770   0.3689532   0.0042351
   12   -0.0216923   0.0005991   0.0042352  -0.0023764   0.3689514
   13   -0.0216929   0.0005990  -0.0023764   0.0042349   0.3689525
   14    0.0041063   0.0022740   0.0028938   0.0028938   0.3199218

             6           7           8           9          10

    6    0.5488224
    7   -0.0260761   0.5986921
    8   -0.0179621  -0.0260736   0.5488143
    9   -0.0000823  -0.0001330  -0.0001672   0.5488190
   10    0.0003553  -0.0018851  -0.0001330  -0.0260748   0.5986915
   11    0.0011172   0.0003553  -0.0000823  -0.0179622  -0.0260745
   12   -0.0001672  -0.0001329  -0.0000824   0.0011170   0.0003553
   13   -0.0000823   0.0003552   0.0011169  -0.0000823  -0.0001330
   14   -0.0001330  -0.0018849   0.0003553   0.0003552  -0.0018849

            11          12          13          14

   11    0.5488177
   12   -0.0000823   0.5488173
   13   -0.0001672  -0.0179623   0.5488204
   14   -0.0001330  -0.0260740  -0.0260750   0.5986893

          TOTAL MULLIKEN AND LOWDIN ATOMIC POPULATIONS
       ATOM         MULL.POP.    CHARGE          LOW.POP.     CHARGE
    1 P            14.404217    0.595783        14.596547    0.403453
    2 O             8.484011   -0.484011         8.263075   -0.263075
    3 C             6.450939   -0.450939         6.088679   -0.088679
    4 C             6.450939   -0.450939         6.092221   -0.092221
    5 C             6.450939   -0.450939         6.110121   -0.110121
    6 H             0.855509    0.144491         0.984805    0.015195
    7 H             0.875306    0.124694         0.995443    0.004557
    8 H             0.855504    0.144496         0.975156    0.024844
    9 H             0.855507    0.144493         0.972625    0.027375
   10 H             0.875305    0.124695         0.995902    0.004098
   11 H             0.855506    0.144494         0.984846    0.015154
   12 H             0.855505    0.144495         0.970505    0.029495
   13 H             0.855508    0.144492         0.973326    0.026674
   14 H             0.875305    0.124695         0.996752    0.003248

          MULLIKEN SPHERICAL HARMONIC POPULATIONS
       ATOM           S       P       D      F      G      H      I    TOTAL
    1 P             5.22    8.38    0.72   0.08   0.00   0.00   0.00   14.40
    2 O             3.74    4.68    0.06   0.00   0.00   0.00   0.00    8.48
    3 C             3.25    3.11    0.08   0.01   0.00   0.00   0.00    6.45
    4 C             3.25    3.11    0.08   0.01   0.00   0.00   0.00    6.45
    5 C             3.25    3.11    0.08   0.01   0.00   0.00   0.00    6.45
    6 H             0.82    0.03    0.00   0.00   0.00   0.00   0.00    0.86
    7 H             0.84    0.03    0.00   0.00   0.00   0.00   0.00    0.88
    8 H             0.82    0.03    0.00   0.00   0.00   0.00   0.00    0.86
    9 H             0.82    0.03    0.00   0.00   0.00   0.00   0.00    0.86
   10 H             0.84    0.03    0.00   0.00   0.00   0.00   0.00    0.88
   11 H             0.82    0.03    0.00   0.00   0.00   0.00   0.00    0.86
   12 H             0.82    0.03    0.00   0.00   0.00   0.00   0.00    0.86
   13 H             0.82    0.03    0.00   0.00   0.00   0.00   0.00    0.86
   14 H             0.84    0.03    0.00   0.00   0.00   0.00   0.00    0.88

          -------------------------------
          BOND ORDER AND VALENCE ANALYSIS     BOND ORDER THRESHOLD=0.050
          -------------------------------

                   BOND                       BOND                       BOND
  ATOM PAIR DIST  ORDER      ATOM PAIR DIST  ORDER      ATOM PAIR DIST  ORDER
    1   2  1.484  2.083        1   3  1.808  0.884        1   4  1.808  0.884
    1   5  1.808  0.884        3   6  1.088  0.914        3   7  1.089  0.900
    3   8  1.088  0.914        4   9  1.088  0.914        4  10  1.089  0.900
    4  11  1.088  0.914        5  12  1.088  0.914        5  13  1.088  0.914
    5  14  1.089  0.900

                       TOTAL       BONDED        FREE
      ATOM            VALENCE     VALENCE     VALENCE
    1 P                 5.245       4.883       0.362
    2 O                 2.525       2.083       0.442
    3 C                 3.906       3.605       0.301
    4 C                 3.906       3.605       0.301
    5 C                 3.906       3.605       0.301
    6 H                 0.994       0.939       0.054
    7 H                 0.991       0.935       0.056
    8 H                 0.994       0.939       0.054
    9 H                 0.994       0.939       0.054
   10 H                 0.991       0.935       0.056
   11 H                 0.994       0.939       0.054
   12 H                 0.994       0.939       0.054
   13 H                 0.994       0.939       0.054
   14 H                 0.991       0.935       0.056

          ---------------------
          ELECTROSTATIC MOMENTS
          ---------------------

 POINT   1           X           Y           Z (BOHR)    CHARGE
                -0.089269    0.055481   -0.265757        0.00 (A.U.)
         DX          DY          DZ         /D/  (DEBYE)
     0.390933   -0.242938   -4.110126    4.135817
 ...... END OF PROPERTY EVALUATION ......
 CPU     0: STEP CPU TIME=     0.22 TOTAL CPU TIME=      310.1 (    5.2 MIN)
 TOTAL WALL CLOCK TIME=      312.5 SECONDS, CPU UTILIZATION IS  99.23%

 BEGINNING ONE ELECTRON GRADIENT...
 ..... END OF 1-ELECTRON GRADIENT ......
 CPU     0: STEP CPU TIME=     0.07 TOTAL CPU TIME=      310.1 (    5.2 MIN)
 TOTAL WALL CLOCK TIME=      312.6 SECONDS, CPU UTILIZATION IS  99.22%

      COMPUTING 2-PARTICLE GRADIENT
      FORMING BACK-TRANSFORMED AMPLITUDES
 THE COARSE/FINE SCHWARZ SCREENINGS SKIPPED   13111779/  26228446 BLOCKS.
 THE NUMBER OF GRADIENT INTEGRAL BLOCKS COMPUTED WAS  26767914
 ..... DONE WITH MP2 GRADIENT .....
 CPU     0: STEP CPU TIME=    72.98 TOTAL CPU TIME=      383.1 (    6.4 MIN)
 TOTAL WALL CLOCK TIME=      386.0 SECONDS, CPU UTILIZATION IS  99.26%

          NSERCH=  0     ENERGY=    -535.5262823

                                 -----------------------
                                 GRADIENT (HARTREE/BOHR)
                                 -----------------------
        ATOM     ZNUC       DE/DX         DE/DY         DE/DZ
 --------------------------------------------------------------
    1  P           15.0     0.0000007    -0.0000002    -0.0000004
    2  O            8.0    -0.0000002     0.0000002     0.0000044
    3  C            6.0    -0.0000017     0.0000009    -0.0000012
    4  C            6.0    -0.0000021    -0.0000009    -0.0000012
    5  C            6.0     0.0000021     0.0000002    -0.0000008
    6  H            1.0    -0.0000010     0.0000007    -0.0000004
    7  H            1.0     0.0000003     0.0000005     0.0000001
    8  H            1.0     0.0000000     0.0000018    -0.0000006
    9  H            1.0     0.0000001    -0.0000016    -0.0000004
   10  H            1.0     0.0000003    -0.0000003     0.0000000
   11  H            1.0    -0.0000008    -0.0000010     0.0000001
   12  H            1.0     0.0000012    -0.0000001     0.0000003
   13  H            1.0     0.0000013     0.0000001     0.0000002
   14  H            1.0    -0.0000002    -0.0000003    -0.0000002

          MAXIMUM GRADIENT = 0.0000044    RMS GRADIENT = 0.0000011

 NSERCH:   0  E=     -535.5262822737  GRAD. MAX=  0.0000044  R.M.S.=  0.0000011


      ***** EQUILIBRIUM GEOMETRY LOCATED *****
 COORDINATES OF ALL ATOMS ARE (ANGS)
   ATOM   CHARGE       X              Y              Z
 ------------------------------------------------------------
 P          15.0  -0.0585378311   0.0363841126  -0.0218046042
 O           8.0  -0.1988488488   0.1235782770   1.4533985157
 C           6.0  -0.8121309712   1.4108712766  -0.9227301435
 C           6.0  -0.8051462202  -1.4386685392  -0.7536354368
 C           6.0   1.6524358710   0.0059507933  -0.6052671243
 H           1.0  -1.8738136543   1.4480197096  -0.6859680184
 H           1.0  -0.6850333687   1.3053556246  -1.9987932241
 H           1.0  -0.3537246037   2.3417032264  -0.5940597801
 H           1.0  -0.3422184779  -2.3218459522  -0.3173958526
 H           1.0  -0.6783465396  -1.4604846605  -1.8346743890
 H           1.0  -1.8666803293  -1.4527974601  -0.5137371506
 H           1.0   2.1596696339  -0.8511510050  -0.1662927129
 H           1.0   2.1553335643   0.9114595235  -0.2709695649
 H           1.0   1.7070381238  -0.0583748167  -1.6906617242

          INTERNUCLEAR DISTANCES (ANGS.)
          ------------------------------

                1 P          2 O          3 C          4 C          5 C     

   1 P       0.0000000    1.4844239 *  1.8079780 *  1.8079770 *  1.8079783 *
   2 O       1.4844239 *  0.0000000    2.7711416 *  2.7711388 *  2.7711361 *
   3 C       1.8079780 *  2.7711416 *  0.0000000    2.8545611 *  2.8545882 *
   4 C       1.8079770 *  2.7711388 *  2.8545611 *  0.0000000    2.8545837 *
   5 C       1.8079783 *  2.7711361 *  2.8545882 *  2.8545837 *  0.0000000  
   6 H       2.3935443 *  3.0226712    1.0883963 *  3.0788956    3.8105788  
   7 H       2.4313102 *  3.6811141    1.0886685 *  3.0157111    3.0156476  
   8 H       2.3935554 *  3.0226065    1.0883973 *  3.8105717    3.0790493  
   9 H       2.3935534 *  3.0226424    3.8105676    1.0883976 *  3.0789858  
  10 H       2.4313115 *  3.6811135    3.0156634    1.0886686 *  3.0156959  
  11 H       2.3935410 *  3.0226222    3.0789525    1.0883958 *  3.8105778  
  12 H       2.3935413 *  3.0225993    3.8105828    3.0790066    1.0883970 *
  13 H       2.3935469 *  3.0226440    3.0789689    3.8105785    1.0883965 *
  14 H       2.4313210 *  3.6811176    3.0157281    3.0156756    1.0886692 *

                6 H          7 H          8 H          9 H         10 H     

   1 P       2.3935443 *  2.4313102 *  2.3935554 *  2.3935534 *  2.4313115 *
   2 O       3.0226712    3.6811141    3.0226065    3.0226424    3.6811135  
   3 C       1.0883963 *  1.0886685 *  1.0883973 *  3.8105676    3.0156634  
   4 C       3.0788956    3.0157111    3.8105717    1.0883976 *  1.0886686 *
   5 C       3.8105788    3.0156476    3.0790493    3.0789858    3.0156959  
   6 H       0.0000000    1.7768122 *  1.7657259 *  4.0857700    3.3478449  
   7 H       1.7768122 *  0.0000000    1.7768112 *  4.0126314    2.7707133 *
   8 H       1.7657259 *  1.7768112 *  0.0000000    4.6717627    4.0126222  
   9 H       4.0857700    4.0126314    4.6717627    0.0000000    1.7768116 *
  10 H       3.3478449    2.7707133 *  4.0126222    1.7768116 *  0.0000000  
  11 H       2.9059344 *  3.3479978    4.0857952    1.7657234 *  1.7768150 *
  12 H       4.6717487    4.0125944    4.0858847    2.9060661 *  3.3480025  
  13 H       4.0858473    3.3478669    2.9060897 *  4.0858519    4.0126095  
  14 H       4.0126218    2.7706880 *  3.3480821    3.3479267    2.7706879 *

               11 H         12 H         13 H         14 H     

   1 P       2.3935410 *  2.3935413 *  2.3935469 *  2.4313210 *
   2 O       3.0226222    3.0225993    3.0226440    3.6811176  
   3 C       3.0789525    3.8105828    3.0789689    3.0157281  
   4 C       1.0883958 *  3.0790066    3.8105785    3.0156756  
   5 C       3.8105778    1.0883970 *  1.0883965 *  1.0886692 *
   6 H       2.9059344 *  4.6717487    4.0858473    4.0126218  
   7 H       3.3479978    4.0125944    3.3478669    2.7706880 *
   8 H       4.0857952    4.0858847    2.9060897 *  3.3480821  
   9 H       1.7657234 *  2.9060661 *  4.0858519    3.3479267  
  10 H       1.7768150 *  3.3480025    4.0126095    2.7706879 *
  11 H       0.0000000    4.0858524    4.6717495    4.0126088  
  12 H       4.0858524    0.0000000    1.7657214 *  1.7768146 *
  13 H       4.6717495    1.7657214 *  0.0000000    1.7768155 *
  14 H       4.0126088    1.7768146 *  1.7768155 *  0.0000000  

  * ... LESS THAN  3.000


          NUCLEAR ENERGY    =      261.2874125603
          ELECTRONIC ENERGY =     -795.8811977223
          TOTAL ENERGY      =     -535.5262822737

 THE INITIAL GEOMETRY IS ALREADY CONVERGED,
 SO ORBITALS/PROPERTY OUTPUT IS ALREADY PRINTED ABOVE
  $VIB   
          IVIB=   0 IATOM=   0 ICOORD=   0 E=     -535.5262822737
  6.814790214E-07-1.570212151E-07-3.640603765E-07-1.788236745E-07 2.003139514E-07
  4.375381124E-06-1.722921036E-06 9.155006770E-07-1.187419426E-06-2.139499190E-06
 -8.849052398E-07-1.202035678E-06 2.092668153E-06 1.860924324E-07-8.314238862E-07
 -9.987847820E-07 6.891147258E-07-3.667466647E-07 2.669348455E-07 4.992490095E-07
  9.248735955E-08-4.874763326E-08 1.792217767E-06-5.734358995E-07 1.210830223E-07
 -1.616363027E-06-3.651871212E-07 3.375363564E-07-3.092413294E-07 3.753626698E-08
 -8.322874763E-07-1.022587316E-06 9.306882448E-08 1.240139723E-06-1.338912603E-07
  2.689379137E-07 1.339289253E-06 1.191517809E-07 2.246357391E-07-1.580664026E-07
 -2.776331671E-07-2.017394465E-07
  3.909327237E-01-2.429383010E-01-4.110125901E+00
 ......END OF GEOMETRY SEARCH......
 CPU     0: STEP CPU TIME=     0.02 TOTAL CPU TIME=      383.1 (    6.4 MIN)
 TOTAL WALL CLOCK TIME=      386.0 SECONDS, CPU UTILIZATION IS  99.26%
               2385853  WORDS OF DYNAMIC MEMORY USED
 EXECUTION OF GAMESS TERMINATED NORMALLY Fri Sep 20 15:12:49 2013
 DDI: 53174184 bytes (50.7 MB / 6 MWords) used by master data server.

 ----------------------------------------
 CPU timing information for all processes
 ========================================
 0: 382.550 + 0.616 = 383.167
 1: 382.972 + 0.534 = 383.507
 2: 381.885 + 0.509 = 382.395
 3: 382.835 + 0.503 = 383.339
 4: 383.724 + 0.483 = 384.208
 5: 383.449 + 0.494 = 383.944
 6: 383.943 + 0.485 = 384.429
 7: 382.999 + 0.467 = 383.467
 8: 0.01 + 0.10 = 0.12
 9: 0.01 + 0.09 = 0.11
 10: 0.03 + 0.05 = 0.09
 11: 0.00 + 0.06 = 0.07
 12: 0.03 + 0.07 = 0.11
 13: 0.05 + 0.08 = 0.14
 14: 0.01 + 0.06 = 0.08
 15: 0.01 + 0.05 = 0.07
 ----------------------------------------
mpdallexit
unset echo
----- accounting info -----
Files used on the master node compute-0-11.local were:
-rw-r--r-- 1 nuwan nuwan     1155 Sep 20 15:06 /scratch/tmp/235041.1.exclusive.q/opmmm-mp2-opt.F05
-rw-r--r-- 1 nuwan nuwan 10961200 Sep 20 15:12 /scratch/tmp/235041.1.exclusive.q/opmmm-mp2-opt.F10
-rw-r--r-- 1 nuwan nuwan       13 Sep 20 15:06 /scratch/tmp/235041.1.exclusive.q/opmmm-mp2-opt.nodes.mpd
ls: No match.
ls: No match.
ls: No match.
Fri Sep 20 15:12:51 CDT 2013
0.635u 0.220s 6:29.37 0.2%	0+0k 0+0io 0pf+0w
executing SGE job epilog /opt/gridengine/ddi/stopddi.csh
